    3
Geometry Step: 0
    O      0.00000000      0.01582918      0.00000000
    H     -0.00000000     -0.60791459     -0.75377373
    H      0.00000000     -0.60791459      0.75377373
