
  ___ ___ ___ _ _ _  
 |   |   |_  | | | | 
 | | | | | . | | | | 
 |__ |  _|___|_____|  1.1.0
 |___|_|             

User:   asod@Asmuss-MacBook-Pro.local
Date:   Thu Apr 20 17:03:56 2017
Arch:   x86_64
Pid:    84859
Python: 2.7.12
gpaw:   /Users/asod/Dropbox/HI/gpaw_trunk/gpaw
_gpaw:  /Users/asod/Dropbox/HI/gpaw_trunk/build/lib.macosx-10.11-x86_64-2.7/_gpaw.so
ase:    /Users/asod/Dropbox/HI/ase_gitlabed/ase (version 3.14.0b1)
numpy:  /usr/local/lib/python2.7/site-packages/numpy (version 1.11.1)
scipy:  /Users/asod/Library/Python/2.7/lib/python/site-packages/scipy (version 0.18.0)
units:  Angstrom and eV
cores:  1

Memory estimate
---------------
Process memory now: 320.30 MiB
Calculator  86.26 MiB
    Density  31.04 MiB
        Arrays  24.33 MiB
        Localized functions  1.25 MiB
        Mixer  5.46 MiB
    Hamiltonian  34.18 MiB
        Arrays  15.92 MiB
        XC  0.00 MiB
        Poisson  18.17 MiB
        vbar  0.09 MiB
    Wavefunctions  21.04 MiB
        Arrays psit_nG  5.46 MiB
        Eigensolver  10.01 MiB
        Projections  0.00 MiB
        Projectors  0.11 MiB
        Overlap op  5.46 MiB

Positions:
  0 O     4.3833    4.2592    4.7586
  1 H     4.0000    5.1362    4.7586
  2 H     5.3346    4.4145    4.7586

       .----------------------------.  
      /|                            |  
     / |                            |  
    /  |                            |  
   /   |                            |  
  /    |                            |  
 *     |                            |  
 |     |                            |  
 |     |                            |  
 |     |      HO H                  |  
 |     |                            |  
 |     |                            |  
 |     .----------------------------.  
 |    /                            /   
 |   /                            /    
 |  /                            /     
 | /                            /      
 |/                            /       
 *----------------------------*        

Unit Cell:
           Periodic     X           Y           Z      Points  Spacing
  --------------------------------------------------------------------
  1. axis:    no    11.614657    0.000000    0.000000    60     0.1936
  2. axis:    no     0.000000    9.136244    0.000000    44     0.2076
  3. axis:    no     0.000000    0.000000    9.517122    48     0.1983

O-setup:
  name   : Oxygen
  id     : 9b9d51c344dea68c822856295a461509
  Z      : 8
  valence: 6
  core   : 2
  charge : 0.0
  file   : /Users/asod/Dropbox/HI/gpaw-setups/gpaw-setups-0.9.20000/O.LDA.gz
  cutoffs: 0.67(comp), 1.17(filt), 0.83(core), lmax=2
  valence states:
            energy   radius
    2s(2.00) -23.752   0.688
    2p(4.00)  -9.195   0.598
    *s       3.459   0.688
    *p      18.016   0.598
    *d       0.000   0.619

Using partial waves for O as LCAO basis

H-setup:
  name   : Hydrogen
  id     : 4766778ce56282eaa64abeb28b7c1de3
  Z      : 1
  valence: 1
  core   : 0
  charge : 0.0
  file   : /Users/asod/Dropbox/HI/gpaw-setups/gpaw-setups-0.9.20000/H.LDA.gz
  cutoffs: 0.48(comp), 0.85(filt), 0.53(core), lmax=2
  valence states:
            energy   radius
    1s(1.00)  -6.353   0.476
    *s      20.858   0.476
    *p       0.000   0.476

Using partial waves for H as LCAO basis

Using the LDA Exchange-Correlation Functional.
Spin-Paired Calculation
Total Charge: 0.000000
Fermi Temperature: 0.000000
Wave functions: Uniform real-space grid
Kinetic energy operator: 6*3+1=19 point O(h^6) finite-difference Laplacian
Eigensolver: Davidson(niter=1, smin=None, normalize=True)
XC and Coulomb potentials evaluated on a 120*88*96 grid
Interpolation: tri-quintic (5. degree polynomial)
Poisson solver: Jacobi solver with 4 multi-grid levels
    Coarsest grid: 15 x 11 x 12 points
    Stencil: 6*3+1=19 point O(h^6) finite-difference Laplacian
    Tolerance: 2.000000e-10
    Max iterations: 1000
Reference Energy: -2052.165985

Total number of cores used: 1
MatrixOperator buffer_size: default value or 
                            see value of nblock in input file
Diagonalizer layout: Serial LAPACK
Orthonormalizer layout: Serial LAPACK

External potential:
    Point-charge potential (points: 3, cutoffs: 0.020, inf, inf Ang)

Symmetries present (total): 1

  ( 1  0  0)
  ( 0  1  0)
  ( 0  0  1)

1 k-point (Gamma)
1 k-point in the Irreducible Part of the Brillouin Zone

          k-points in crystal coordinates                weights
   0:     0.00000000    0.00000000    0.00000000          1/1

Mixer Type: Mixer
Linear Mixing Parameter: 0.25
Mixing with 3 Old Densities
No Damping of Long Wave Oscillations

Convergence Criteria:
    Total Energy Change: 0.0005 eV / electron
    Integral of Absolute Density Change: 0.0001 electrons
    Integral of Absolute Eigenstate Change: 4e-08 eV^2
Number of Atoms: 3
Number of Atomic Orbitals: 6
Number of Bands in Calculation: 6
Bands to Converge: Occupied States Only
Number of Valence Electrons: 8
                     log10-error:    Total        Iterations:
           Time      WFS    Density  Energy       Fermi  Poisson
iter:   1  17:03:58  +1.95          -17.446290    0      20     
iter:   2  17:03:58  +1.17          -17.788639    0             
iter:   3  17:03:58  +0.50          -17.867400    0             
iter:   4  17:04:00  +0.64  -0.68   -15.807280    0      12     
iter:   5  17:04:02  +0.60  -0.95   -15.535186    0      11     
iter:   6  17:04:03  +0.65  -1.16   -15.521128    0      11     
iter:   7  17:04:04  +0.31  -1.84   -15.534140    0      7      
iter:   8  17:04:05  -0.36  -2.10   -15.535250    0      6      
iter:   9  17:04:06  -0.82  -2.28   -15.536848    0      6      
iter:  10  17:04:07  -1.13  -2.36   -15.537860    0      6      
iter:  11  17:04:08  -1.59  -2.60   -15.537770    0      5      
iter:  12  17:04:09  -1.69  -2.77   -15.537955    0      5      
iter:  13  17:04:09  -2.20  -3.16   -15.538071    0      4      
iter:  14  17:04:10  -2.22  -3.22   -15.538186    0      3      
iter:  15  17:04:11  -2.81  -3.23   -15.538187    0      4      
iter:  16  17:04:11  -2.99  -3.43   -15.538210    0      3      
iter:  17  17:04:12  -3.33  -3.60   -15.538034    0      3      
iter:  18  17:04:13  -3.39  -3.87   -15.538181    0      3      
iter:  19  17:04:13  -3.97  -4.34   -15.538211    0      2      
iter:  20  17:04:14  -4.06  -4.35   -15.538129    0      1      
iter:  21  17:04:14  -4.56  -4.34   -15.538217    0      1      
iter:  22  17:04:14  -4.62  -4.21   -15.538229    0      1      
iter:  23  17:04:15  -5.08  -4.32   -15.538001    0      1      
iter:  24  17:04:15  -5.11  -4.28   -15.538185    0      2      
iter:  25  17:04:16  -5.61  -4.48   -15.538216    0      1      
iter:  26  17:04:16  -5.75  -4.57   -15.538150    0      2      
iter:  27  17:04:17  -6.26  -5.39   -15.538157    0      1      
iter:  28  17:04:17  -6.34  -5.60   -15.538165    0      1      
iter:  29  17:04:18  -6.77  -5.51   -15.538174    0      1      
iter:  30  17:04:18  -6.85  -5.49   -15.538168    0      1      
iter:  31  17:04:18  -7.25  -5.46   -15.538169    0      1      
iter:  32  17:04:19  -7.34  -5.42   -15.538168    0      1      
iter:  33  17:04:19  -7.71  -5.38   -15.538159    0      1      
------------------------------------
Converged After 33 Iterations.

Energy Contributions Relative to Reference Atoms:(reference = -2052.165985)
-------------------------
Kinetic:        +18.591228
Potential:      -20.605606
External:        -0.319826
XC:             -13.857748
Entropy (-ST):   -0.000000
Local:           +0.653794
-------------------------
Free Energy:    -15.538159
Zero Kelvin:    -15.538159

Fermi Level: -3.58146
 Band  Eigenvalues  Occupancy
    0    -24.55441    2.00000
    1    -12.60259    2.00000
    2     -8.84651    2.00000
    3     -6.86544    2.00000
    4     -0.29747    0.00000
    5      0.76038    0.00000


Dipole Moment: [  2.36851589e-01   3.61759995e-01   3.54654673e-15]

Forces in eV/Ang:
  0 O    -0.11872   -0.71344   -0.00000
  1 H    -0.32773    0.63123   -0.00000
  2 H     0.93112    0.17519   -0.00000

Positions:
  0 O     4.3788    4.2488    4.7586
  1 H     3.9953    5.1453    4.7586
  2 H     5.3479    4.4170    4.7586

       .----------------------------.  
      /|                            |  
     / |                            |  
    /  |                            |  
   /   |                            |  
  /    |                            |  
 *     |                            |  
 |     |                            |  
 |     |                            |  
 |     |      HO H                  |  
 |     |                            |  
 |     |                            |  
 |     .----------------------------.  
 |    /                            /   
 |   /                            /    
 |  /                            /     
 | /                            /      
 |/                            /       
 *----------------------------*        

Unit Cell:
           Periodic     X           Y           Z      Points  Spacing
  --------------------------------------------------------------------
  1. axis:    no    11.614657    0.000000    0.000000    60     0.1936
  2. axis:    no     0.000000    9.136244    0.000000    44     0.2076
  3. axis:    no     0.000000    0.000000    9.517122    48     0.1983

O-setup:
  name   : Oxygen
  id     : 9b9d51c344dea68c822856295a461509
  Z      : 8
  valence: 6
  core   : 2
  charge : 0.0
  file   : /Users/asod/Dropbox/HI/gpaw-setups/gpaw-setups-0.9.20000/O.LDA.gz
  cutoffs: 0.67(comp), 1.17(filt), 0.83(core), lmax=2
  valence states:
            energy   radius
    2s(2.00) -23.752   0.688
    2p(4.00)  -9.195   0.598
    *s       3.459   0.688
    *p      18.016   0.598
    *d       0.000   0.619

Using partial waves for O as LCAO basis

H-setup:
  name   : Hydrogen
  id     : 4766778ce56282eaa64abeb28b7c1de3
  Z      : 1
  valence: 1
  core   : 0
  charge : 0.0
  file   : /Users/asod/Dropbox/HI/gpaw-setups/gpaw-setups-0.9.20000/H.LDA.gz
  cutoffs: 0.48(comp), 0.85(filt), 0.53(core), lmax=2
  valence states:
            energy   radius
    1s(1.00)  -6.353   0.476
    *s      20.858   0.476
    *p       0.000   0.476

Using partial waves for H as LCAO basis

Using the LDA Exchange-Correlation Functional.
Spin-Paired Calculation
Total Charge: 0.000000
Fermi Temperature: 0.000000
Wave functions: Uniform real-space grid
Kinetic energy operator: 6*3+1=19 point O(h^6) finite-difference Laplacian
Eigensolver: Davidson(niter=1, smin=None, normalize=True)
XC and Coulomb potentials evaluated on a 120*88*96 grid
Interpolation: tri-quintic (5. degree polynomial)
Poisson solver: Jacobi solver with 4 multi-grid levels
    Coarsest grid: 15 x 11 x 12 points
    Stencil: 6*3+1=19 point O(h^6) finite-difference Laplacian
    Tolerance: 2.000000e-10
    Max iterations: 1000
Reference Energy: -2052.165985

Total number of cores used: 1
MatrixOperator buffer_size: default value or 
                            see value of nblock in input file
Diagonalizer layout: Serial LAPACK
Orthonormalizer layout: Serial LAPACK

External potential:
    Point-charge potential (points: 3, cutoffs: 0.020, inf, inf Ang)

Symmetries present (total): 1

  ( 1  0  0)
  ( 0  1  0)
  ( 0  0  1)

1 k-point (Gamma)
1 k-point in the Irreducible Part of the Brillouin Zone

          k-points in crystal coordinates                weights
   0:     0.00000000    0.00000000    0.00000000          1/1

Mixer Type: Mixer
Linear Mixing Parameter: 0.25
Mixing with 3 Old Densities
No Damping of Long Wave Oscillations

Convergence Criteria:
    Total Energy Change: 0.0005 eV / electron
    Integral of Absolute Density Change: 0.0001 electrons
    Integral of Absolute Eigenstate Change: 4e-08 eV^2
Number of Atoms: 3
Number of Atomic Orbitals: 6
Number of Bands in Calculation: 6
Bands to Converge: Occupied States Only
Number of Valence Electrons: 8
                     log10-error:    Total        Iterations:
           Time      WFS    Density  Energy       Fermi  Poisson
iter:   1  17:04:21  +0.52          -15.595039    0      13     
iter:   2  17:04:22  +0.06  -1.51   -15.575857    0      7      
iter:   3  17:04:23  -0.82  -1.75   -15.555402    0      8      
iter:   4  17:04:24  -1.39  -2.15   -15.552145    0      7      
iter:   5  17:04:25  -1.82  -2.67   -15.552330    0      5      
iter:   6  17:04:26  -2.17  -2.85   -15.552395    0      5      
iter:   7  17:04:27  -2.55  -3.05   -15.552400    0      5      
iter:   8  17:04:28  -2.98  -3.56   -15.552452    0      3      
iter:   9  17:04:28  -3.19  -3.67   -15.552455    0      4      
iter:  10  17:04:29  -3.46  -4.16   -15.552373    0      2      
iter:  11  17:04:29  -3.74  -4.26   -15.552375    0      2      
iter:  12  17:04:30  -3.98  -4.35   -15.552360    0      2      
iter:  13  17:04:30  -4.22  -4.59   -15.552339    0      1      
iter:  14  17:04:31  -4.48  -4.67   -15.552413    0      2      
iter:  15  17:04:31  -4.72  -4.98   -15.552450    0      1      
iter:  16  17:04:32  -4.96  -5.18   -15.552450    0      1      
iter:  17  17:04:32  -5.21  -5.49   -15.552450    0      1      
iter:  18  17:04:33  -5.42  -5.55   -15.552439    0      1      
iter:  19  17:04:33  -5.67  -5.53   -15.552443    0      1      
iter:  20  17:04:33  -5.88  -5.40   -15.552444    0      1      
iter:  21  17:04:34  -6.13  -5.37   -15.552437    0      1      
iter:  22  17:04:34  -6.33  -5.32   -15.552470    0      1      
iter:  23  17:04:35  -6.55  -5.22   -15.552447    0      1      
iter:  24  17:04:35  -6.76  -5.18   -15.552402    0      1      
iter:  25  17:04:35  -6.97  -5.31   -15.552456    0      1      
iter:  26  17:04:36  -7.18  -5.26   -15.552383    0      1      
iter:  27  17:04:36  -7.22  -5.11   -15.552437    0      1      
iter:  28  17:04:37  -7.67  -5.26   -15.552469    0      1      
------------------------------------
Converged After 28 Iterations.

Energy Contributions Relative to Reference Atoms:(reference = -2052.165985)
-------------------------
Kinetic:        +16.776892
Potential:      -19.262137
External:        -0.333109
XC:             -13.386963
Entropy (-ST):   -0.000000
Local:           +0.652849
-------------------------
Free Energy:    -15.552469
Zero Kelvin:    -15.552469

Fermi Level: -3.58366
 Band  Eigenvalues  Occupancy
    0    -24.35283    2.00000
    1    -12.36913    2.00000
    2     -8.84881    2.00000
    3     -6.81697    2.00000
    4     -0.35035    0.00000
    5      0.72106    0.00000


Dipole Moment: [  2.42006170e-01   3.66888757e-01   5.42497495e-14]

Forces in eV/Ang:
  0 O     0.45154    0.22444   -0.00000
  1 H     0.01779   -0.20118    0.00000
  2 H     0.04355    0.00240   -0.00000

Positions:
  0 O     4.3817    4.2503    4.7586
  1 H     3.9950    5.1437    4.7586
  2 H     5.3501    4.4173    4.7586

       .----------------------------.  
      /|                            |  
     / |                            |  
    /  |                            |  
   /   |                            |  
  /    |                            |  
 *     |                            |  
 |     |                            |  
 |     |                            |  
 |     |      HO H                  |  
 |     |                            |  
 |     |                            |  
 |     .----------------------------.  
 |    /                            /   
 |   /                            /    
 |  /                            /     
 | /                            /      
 |/                            /       
 *----------------------------*        

Unit Cell:
           Periodic     X           Y           Z      Points  Spacing
  --------------------------------------------------------------------
  1. axis:    no    11.614657    0.000000    0.000000    60     0.1936
  2. axis:    no     0.000000    9.136244    0.000000    44     0.2076
  3. axis:    no     0.000000    0.000000    9.517122    48     0.1983

O-setup:
  name   : Oxygen
  id     : 9b9d51c344dea68c822856295a461509
  Z      : 8
  valence: 6
  core   : 2
  charge : 0.0
  file   : /Users/asod/Dropbox/HI/gpaw-setups/gpaw-setups-0.9.20000/O.LDA.gz
  cutoffs: 0.67(comp), 1.17(filt), 0.83(core), lmax=2
  valence states:
            energy   radius
    2s(2.00) -23.752   0.688
    2p(4.00)  -9.195   0.598
    *s       3.459   0.688
    *p      18.016   0.598
    *d       0.000   0.619

Using partial waves for O as LCAO basis

H-setup:
  name   : Hydrogen
  id     : 4766778ce56282eaa64abeb28b7c1de3
  Z      : 1
  valence: 1
  core   : 0
  charge : 0.0
  file   : /Users/asod/Dropbox/HI/gpaw-setups/gpaw-setups-0.9.20000/H.LDA.gz
  cutoffs: 0.48(comp), 0.85(filt), 0.53(core), lmax=2
  valence states:
            energy   radius
    1s(1.00)  -6.353   0.476
    *s      20.858   0.476
    *p       0.000   0.476

Using partial waves for H as LCAO basis

Using the LDA Exchange-Correlation Functional.
Spin-Paired Calculation
Total Charge: 0.000000
Fermi Temperature: 0.000000
Wave functions: Uniform real-space grid
Kinetic energy operator: 6*3+1=19 point O(h^6) finite-difference Laplacian
Eigensolver: Davidson(niter=1, smin=None, normalize=True)
XC and Coulomb potentials evaluated on a 120*88*96 grid
Interpolation: tri-quintic (5. degree polynomial)
Poisson solver: Jacobi solver with 4 multi-grid levels
    Coarsest grid: 15 x 11 x 12 points
    Stencil: 6*3+1=19 point O(h^6) finite-difference Laplacian
    Tolerance: 2.000000e-10
    Max iterations: 1000
Reference Energy: -2052.165985

Total number of cores used: 1
MatrixOperator buffer_size: default value or 
                            see value of nblock in input file
Diagonalizer layout: Serial LAPACK
Orthonormalizer layout: Serial LAPACK

External potential:
    Point-charge potential (points: 3, cutoffs: 0.020, inf, inf Ang)

Symmetries present (total): 1

  ( 1  0  0)
  ( 0  1  0)
  ( 0  0  1)

1 k-point (Gamma)
1 k-point in the Irreducible Part of the Brillouin Zone

          k-points in crystal coordinates                weights
   0:     0.00000000    0.00000000    0.00000000          1/1

Mixer Type: Mixer
Linear Mixing Parameter: 0.25
Mixing with 3 Old Densities
No Damping of Long Wave Oscillations

Convergence Criteria:
    Total Energy Change: 0.0005 eV / electron
    Integral of Absolute Density Change: 0.0001 electrons
    Integral of Absolute Eigenstate Change: 4e-08 eV^2
Number of Atoms: 3
Number of Atomic Orbitals: 6
Number of Bands in Calculation: 6
Bands to Converge: Occupied States Only
Number of Valence Electrons: 8
                     log10-error:    Total        Iterations:
           Time      WFS    Density  Energy       Fermi  Poisson
iter:   1  17:04:38  -0.65          -15.560417    0      10     
iter:   2  17:04:39  -1.11  -2.17   -15.559691    0      5      
iter:   3  17:04:40  -2.14  -2.35   -15.558116    0      6      
iter:   4  17:04:41  -2.71  -2.92   -15.558082    0      5      
iter:   5  17:04:41  -3.12  -3.24   -15.558143    0      4      
iter:   6  17:04:42  -3.59  -3.52   -15.558146    0      4      
iter:   7  17:04:43  -3.66  -3.75   -15.558163    0      3      
iter:   8  17:04:43  -4.37  -4.13   -15.558243    0      2      
iter:   9  17:04:44  -4.33  -4.29   -15.558192    0      2      
iter:  10  17:04:44  -4.99  -4.45   -15.558325    0      1      
iter:  11  17:04:45  -4.94  -4.58   -15.558149    0      1      
iter:  12  17:04:45  -5.53  -4.69   -15.558079    0      1      
iter:  13  17:04:45  -5.51  -4.88   -15.558130    0      1      
iter:  14  17:04:46  -6.03  -5.07   -15.558149    0      1      
iter:  15  17:04:46  -6.04  -5.35   -15.558176    0      1      
iter:  16  17:04:47  -6.54  -5.59   -15.558174    0      1      
iter:  17  17:04:47  -6.52  -5.66   -15.558139    0      1      
iter:  18  17:04:48  -7.05  -5.85   -15.558146    0      1      
iter:  19  17:04:48  -7.05  -5.95   -15.558154    0      1      
iter:  20  17:04:48  -7.55  -6.13   -15.558143    0      1      
------------------------------------
Converged After 20 Iterations.

Energy Contributions Relative to Reference Atoms:(reference = -2052.165985)
-------------------------
Kinetic:        +16.870415
Potential:      -19.328881
External:        -0.338298
XC:             -13.414424
Entropy (-ST):   -0.000000
Local:           +0.653046
-------------------------
Free Energy:    -15.558143
Zero Kelvin:    -15.558143

Fermi Level: -3.57446
 Band  Eigenvalues  Occupancy
    0    -24.34973    2.00000
    1    -12.38271    2.00000
    2     -8.82688    2.00000
    3     -6.80898    2.00000
    4     -0.33994    0.00000
    5      0.72412    0.00000


Dipole Moment: [  2.41783299e-01   3.66002246e-01   8.31873710e-14]

Forces in eV/Ang:
  0 O     0.43205    0.13881   -0.00000
  1 H     0.00921   -0.13483   -0.00000
  2 H     0.07768    0.02309   -0.00000

Positions:
  0 O     4.3994    4.2556    4.7586
  1 H     3.9923    5.1368    4.7586
  2 H     5.3665    4.4207    4.7586

       .----------------------------.  
      /|                            |  
     / |                            |  
    /  |                            |  
   /   |                            |  
  /    |                            |  
 *     |                            |  
 |     |                            |  
 |     |                            |  
 |     |      HO H                  |  
 |     |                            |  
 |     |                            |  
 |     .----------------------------.  
 |    /                            /   
 |   /                            /    
 |  /                            /     
 | /                            /      
 |/                            /       
 *----------------------------*        

Unit Cell:
           Periodic     X           Y           Z      Points  Spacing
  --------------------------------------------------------------------
  1. axis:    no    11.614657    0.000000    0.000000    60     0.1936
  2. axis:    no     0.000000    9.136244    0.000000    44     0.2076
  3. axis:    no     0.000000    0.000000    9.517122    48     0.1983

O-setup:
  name   : Oxygen
  id     : 9b9d51c344dea68c822856295a461509
  Z      : 8
  valence: 6
  core   : 2
  charge : 0.0
  file   : /Users/asod/Dropbox/HI/gpaw-setups/gpaw-setups-0.9.20000/O.LDA.gz
  cutoffs: 0.67(comp), 1.17(filt), 0.83(core), lmax=2
  valence states:
            energy   radius
    2s(2.00) -23.752   0.688
    2p(4.00)  -9.195   0.598
    *s       3.459   0.688
    *p      18.016   0.598
    *d       0.000   0.619

Using partial waves for O as LCAO basis

H-setup:
  name   : Hydrogen
  id     : 4766778ce56282eaa64abeb28b7c1de3
  Z      : 1
  valence: 1
  core   : 0
  charge : 0.0
  file   : /Users/asod/Dropbox/HI/gpaw-setups/gpaw-setups-0.9.20000/H.LDA.gz
  cutoffs: 0.48(comp), 0.85(filt), 0.53(core), lmax=2
  valence states:
            energy   radius
    1s(1.00)  -6.353   0.476
    *s      20.858   0.476
    *p       0.000   0.476

Using partial waves for H as LCAO basis

Using the LDA Exchange-Correlation Functional.
Spin-Paired Calculation
Total Charge: 0.000000
Fermi Temperature: 0.000000
Wave functions: Uniform real-space grid
Kinetic energy operator: 6*3+1=19 point O(h^6) finite-difference Laplacian
Eigensolver: Davidson(niter=1, smin=None, normalize=True)
XC and Coulomb potentials evaluated on a 120*88*96 grid
Interpolation: tri-quintic (5. degree polynomial)
Poisson solver: Jacobi solver with 4 multi-grid levels
    Coarsest grid: 15 x 11 x 12 points
    Stencil: 6*3+1=19 point O(h^6) finite-difference Laplacian
    Tolerance: 2.000000e-10
    Max iterations: 1000
Reference Energy: -2052.165985

Total number of cores used: 1
MatrixOperator buffer_size: default value or 
                            see value of nblock in input file
Diagonalizer layout: Serial LAPACK
Orthonormalizer layout: Serial LAPACK

External potential:
    Point-charge potential (points: 3, cutoffs: 0.020, inf, inf Ang)

Symmetries present (total): 1

  ( 1  0  0)
  ( 0  1  0)
  ( 0  0  1)

1 k-point (Gamma)
1 k-point in the Irreducible Part of the Brillouin Zone

          k-points in crystal coordinates                weights
   0:     0.00000000    0.00000000    0.00000000          1/1

Mixer Type: Mixer
Linear Mixing Parameter: 0.25
Mixing with 3 Old Densities
No Damping of Long Wave Oscillations

Convergence Criteria:
    Total Energy Change: 0.0005 eV / electron
    Integral of Absolute Density Change: 0.0001 electrons
    Integral of Absolute Eigenstate Change: 4e-08 eV^2
Number of Atoms: 3
Number of Atomic Orbitals: 6
Number of Bands in Calculation: 6
Bands to Converge: Occupied States Only
Number of Valence Electrons: 8
                     log10-error:    Total        Iterations:
           Time      WFS    Density  Energy       Fermi  Poisson
iter:   1  17:04:50  +0.86          -15.669191    0      13     
iter:   2  17:04:51  +0.39  -1.41   -15.647249    0      8      
iter:   3  17:04:52  -0.65  -1.59   -15.593065    0      10     
iter:   4  17:04:53  -1.24  -2.24   -15.592666    0      7      
iter:   5  17:04:54  -1.67  -2.50   -15.592722    0      6      
iter:   6  17:04:55  -2.15  -2.83   -15.592868    0      6      
iter:   7  17:04:56  -2.27  -3.06   -15.592918    0      4      
iter:   8  17:04:57  -2.84  -3.21   -15.592934    0      4      
iter:   9  17:04:57  -2.78  -3.30   -15.592844    0      4      
iter:  10  17:04:58  -3.34  -3.58   -15.592967    0      3      
iter:  11  17:04:59  -3.58  -3.76   -15.592964    0      3      
iter:  12  17:04:59  -3.79  -4.04   -15.592812    0      2      
iter:  13  17:05:00  -4.16  -4.12   -15.592766    0      2      
iter:  14  17:05:00  -4.36  -4.27   -15.593155    0      1      
iter:  15  17:05:01  -4.66  -4.39   -15.592948    0      2      
iter:  16  17:05:01  -4.85  -4.75   -15.592672    0      1      
iter:  17  17:05:01  -5.16  -5.05   -15.592841    0      1      
iter:  18  17:05:02  -5.33  -5.05   -15.593021    0      1      
iter:  19  17:05:02  -5.61  -5.13   -15.592877    0      1      
iter:  20  17:05:03  -5.82  -5.19   -15.592806    0      1      
iter:  21  17:05:03  -6.08  -5.28   -15.592901    0      1      
iter:  22  17:05:03  -6.31  -5.45   -15.592883    0      1      
iter:  23  17:05:04  -6.56  -5.44   -15.592887    0      1      
iter:  24  17:05:04  -6.76  -5.49   -15.592894    0      1      
iter:  25  17:05:05  -6.98  -5.51   -15.592872    0      1      
iter:  26  17:05:05  -7.20  -5.59   -15.592865    0      1      
iter:  27  17:05:06  -7.42  -5.63   -15.592898    0      1      
------------------------------------
Converged After 27 Iterations.

Energy Contributions Relative to Reference Atoms:(reference = -2052.165985)
-------------------------
Kinetic:        +16.999359
Potential:      -19.405892
External:        -0.375527
XC:             -13.464068
Entropy (-ST):   -0.000000
Local:           +0.653231
-------------------------
Free Energy:    -15.592898
Zero Kelvin:    -15.592898

Fermi Level: -3.52050
 Band  Eigenvalues  Occupancy
    0    -24.28098    2.00000
    1    -12.40025    2.00000
    2     -8.69835    2.00000
    3     -6.74742    2.00000
    4     -0.29358    0.00000
    5      0.73250    0.00000


Dipole Moment: [  2.41084585e-01   3.62445079e-01   2.89155472e-13]

Forces in eV/Ang:
  0 O     0.27952   -0.05227   -0.00000
  1 H     0.05670   -0.00194   -0.00000
  2 H     0.17853    0.11489   -0.00000

Positions:
  0 O     4.4147    4.2597    4.7586
  1 H     3.9906    5.1306    4.7586
  2 H     5.3837    4.4251    4.7586

       .----------------------------.  
      /|                            |  
     / |                            |  
    /  |                            |  
   /   |                            |  
  /    |                            |  
 *     |                            |  
 |     |                            |  
 |     |                            |  
 |     |      HO H                  |  
 |     |                            |  
 |     |                            |  
 |     .----------------------------.  
 |    /                            /   
 |   /                            /    
 |  /                            /     
 | /                            /      
 |/                            /       
 *----------------------------*        

Unit Cell:
           Periodic     X           Y           Z      Points  Spacing
  --------------------------------------------------------------------
  1. axis:    no    11.614657    0.000000    0.000000    60     0.1936
  2. axis:    no     0.000000    9.136244    0.000000    44     0.2076
  3. axis:    no     0.000000    0.000000    9.517122    48     0.1983

O-setup:
  name   : Oxygen
  id     : 9b9d51c344dea68c822856295a461509
  Z      : 8
  valence: 6
  core   : 2
  charge : 0.0
  file   : /Users/asod/Dropbox/HI/gpaw-setups/gpaw-setups-0.9.20000/O.LDA.gz
  cutoffs: 0.67(comp), 1.17(filt), 0.83(core), lmax=2
  valence states:
            energy   radius
    2s(2.00) -23.752   0.688
    2p(4.00)  -9.195   0.598
    *s       3.459   0.688
    *p      18.016   0.598
    *d       0.000   0.619

Using partial waves for O as LCAO basis

H-setup:
  name   : Hydrogen
  id     : 4766778ce56282eaa64abeb28b7c1de3
  Z      : 1
  valence: 1
  core   : 0
  charge : 0.0
  file   : /Users/asod/Dropbox/HI/gpaw-setups/gpaw-setups-0.9.20000/H.LDA.gz
  cutoffs: 0.48(comp), 0.85(filt), 0.53(core), lmax=2
  valence states:
            energy   radius
    1s(1.00)  -6.353   0.476
    *s      20.858   0.476
    *p       0.000   0.476

Using partial waves for H as LCAO basis

Using the LDA Exchange-Correlation Functional.
Spin-Paired Calculation
Total Charge: 0.000000
Fermi Temperature: 0.000000
Wave functions: Uniform real-space grid
Kinetic energy operator: 6*3+1=19 point O(h^6) finite-difference Laplacian
Eigensolver: Davidson(niter=1, smin=None, normalize=True)
XC and Coulomb potentials evaluated on a 120*88*96 grid
Interpolation: tri-quintic (5. degree polynomial)
Poisson solver: Jacobi solver with 4 multi-grid levels
    Coarsest grid: 15 x 11 x 12 points
    Stencil: 6*3+1=19 point O(h^6) finite-difference Laplacian
    Tolerance: 2.000000e-10
    Max iterations: 1000
Reference Energy: -2052.165985

Total number of cores used: 1
MatrixOperator buffer_size: default value or 
                            see value of nblock in input file
Diagonalizer layout: Serial LAPACK
Orthonormalizer layout: Serial LAPACK

External potential:
    Point-charge potential (points: 3, cutoffs: 0.020, inf, inf Ang)

Symmetries present (total): 1

  ( 1  0  0)
  ( 0  1  0)
  ( 0  0  1)

1 k-point (Gamma)
1 k-point in the Irreducible Part of the Brillouin Zone

          k-points in crystal coordinates                weights
   0:     0.00000000    0.00000000    0.00000000          1/1

Mixer Type: Mixer
Linear Mixing Parameter: 0.25
Mixing with 3 Old Densities
No Damping of Long Wave Oscillations

Convergence Criteria:
    Total Energy Change: 0.0005 eV / electron
    Integral of Absolute Density Change: 0.0001 electrons
    Integral of Absolute Eigenstate Change: 4e-08 eV^2
Number of Atoms: 3
Number of Atomic Orbitals: 6
Number of Bands in Calculation: 6
Bands to Converge: Occupied States Only
Number of Valence Electrons: 8
                     log10-error:    Total        Iterations:
           Time      WFS    Density  Energy       Fermi  Poisson
iter:   1  17:05:07  +0.72          -15.682860    0      13     
iter:   2  17:05:09  +0.25  -1.48   -15.665753    0      8      
iter:   3  17:05:10  -0.79  -1.65   -15.626468    0      9      
iter:   4  17:05:11  -1.36  -2.32   -15.626431    0      6      
iter:   5  17:05:12  -1.82  -2.56   -15.626477    0      5      
iter:   6  17:05:12  -2.27  -2.91   -15.626601    0      5      
iter:   7  17:05:13  -2.38  -3.12   -15.626673    0      4      
iter:   8  17:05:14  -2.93  -3.24   -15.626688    0      4      
iter:   9  17:05:15  -2.90  -3.35   -15.626584    0      4      
iter:  10  17:05:15  -3.36  -3.60   -15.626714    0      3      
iter:  11  17:05:16  -3.68  -3.83   -15.626711    0      3      
iter:  12  17:05:16  -3.91  -4.12   -15.626586    0      2      
iter:  13  17:05:17  -4.26  -4.20   -15.626551    0      2      
iter:  14  17:05:17  -4.47  -4.40   -15.626760    0      1      
iter:  15  17:05:18  -4.77  -4.50   -15.626682    0      2      
iter:  16  17:05:18  -4.99  -4.89   -15.626638    0      1      
iter:  17  17:05:19  -5.27  -5.06   -15.626604    0      1      
iter:  18  17:05:19  -5.47  -5.35   -15.626616    0      1      
iter:  19  17:05:20  -5.75  -5.48   -15.626629    0      1      
iter:  20  17:05:20  -5.95  -5.50   -15.626633    0      1      
iter:  21  17:05:20  -6.22  -5.57   -15.626658    0      1      
iter:  22  17:05:21  -6.43  -5.61   -15.626618    0      1      
iter:  23  17:05:21  -6.69  -6.09   -15.626627    0      1      
iter:  24  17:05:22  -6.89  -6.22   -15.626629    0      1      
iter:  25  17:05:22  -7.14  -6.27   -15.626629    0      1      
iter:  26  17:05:22  -7.34  -6.44   -15.626627    0      1      
iter:  27  17:05:23  -7.59  -6.47   -15.626628    0      1      
------------------------------------
Converged After 27 Iterations.

Energy Contributions Relative to Reference Atoms:(reference = -2052.165985)
-------------------------
Kinetic:        +16.930152
Potential:      -19.334378
External:        -0.417186
XC:             -13.459116
Entropy (-ST):   -0.000000
Local:           +0.653901
-------------------------
Free Energy:    -15.626628
Zero Kelvin:    -15.626628

Fermi Level: -3.47100
 Band  Eigenvalues  Occupancy
    0    -24.19579    2.00000
    1    -12.38130    2.00000
    2     -8.58200    2.00000
    3     -6.68328    2.00000
    4     -0.25872    0.00000
    5      0.73541    0.00000


Dipole Moment: [  2.42190551e-01   3.59344537e-01   5.83154985e-13]

Forces in eV/Ang:
  0 O     0.31512   -0.19057   -0.00000
  1 H     0.08989    0.09573    0.00000
  2 H     0.14174    0.15242   -0.00000

Positions:
  0 O     4.4295    4.2622    4.7586
  1 H     3.9898    5.1252    4.7586
  2 H     5.4002    4.4302    4.7586

       .----------------------------.  
      /|                            |  
     / |                            |  
    /  |                            |  
   /   |                            |  
  /    |                            |  
 *     |                            |  
 |     |                            |  
 |     |                            |  
 |     |      HO H                  |  
 |     |                            |  
 |     |                            |  
 |     .----------------------------.  
 |    /                            /   
 |   /                            /    
 |  /                            /     
 | /                            /      
 |/                            /       
 *----------------------------*        

Unit Cell:
           Periodic     X           Y           Z      Points  Spacing
  --------------------------------------------------------------------
  1. axis:    no    11.614657    0.000000    0.000000    60     0.1936
  2. axis:    no     0.000000    9.136244    0.000000    44     0.2076
  3. axis:    no     0.000000    0.000000    9.517122    48     0.1983

O-setup:
  name   : Oxygen
  id     : 9b9d51c344dea68c822856295a461509
  Z      : 8
  valence: 6
  core   : 2
  charge : 0.0
  file   : /Users/asod/Dropbox/HI/gpaw-setups/gpaw-setups-0.9.20000/O.LDA.gz
  cutoffs: 0.67(comp), 1.17(filt), 0.83(core), lmax=2
  valence states:
            energy   radius
    2s(2.00) -23.752   0.688
    2p(4.00)  -9.195   0.598
    *s       3.459   0.688
    *p      18.016   0.598
    *d       0.000   0.619

Using partial waves for O as LCAO basis

H-setup:
  name   : Hydrogen
  id     : 4766778ce56282eaa64abeb28b7c1de3
  Z      : 1
  valence: 1
  core   : 0
  charge : 0.0
  file   : /Users/asod/Dropbox/HI/gpaw-setups/gpaw-setups-0.9.20000/H.LDA.gz
  cutoffs: 0.48(comp), 0.85(filt), 0.53(core), lmax=2
  valence states:
            energy   radius
    1s(1.00)  -6.353   0.476
    *s      20.858   0.476
    *p       0.000   0.476

Using partial waves for H as LCAO basis

Using the LDA Exchange-Correlation Functional.
Spin-Paired Calculation
Total Charge: 0.000000
Fermi Temperature: 0.000000
Wave functions: Uniform real-space grid
Kinetic energy operator: 6*3+1=19 point O(h^6) finite-difference Laplacian
Eigensolver: Davidson(niter=1, smin=None, normalize=True)
XC and Coulomb potentials evaluated on a 120*88*96 grid
Interpolation: tri-quintic (5. degree polynomial)
Poisson solver: Jacobi solver with 4 multi-grid levels
    Coarsest grid: 15 x 11 x 12 points
    Stencil: 6*3+1=19 point O(h^6) finite-difference Laplacian
    Tolerance: 2.000000e-10
    Max iterations: 1000
Reference Energy: -2052.165985

Total number of cores used: 1
MatrixOperator buffer_size: default value or 
                            see value of nblock in input file
Diagonalizer layout: Serial LAPACK
Orthonormalizer layout: Serial LAPACK

External potential:
    Point-charge potential (points: 3, cutoffs: 0.020, inf, inf Ang)

Symmetries present (total): 1

  ( 1  0  0)
  ( 0  1  0)
  ( 0  0  1)

1 k-point (Gamma)
1 k-point in the Irreducible Part of the Brillouin Zone

          k-points in crystal coordinates                weights
   0:     0.00000000    0.00000000    0.00000000          1/1

Mixer Type: Mixer
Linear Mixing Parameter: 0.25
Mixing with 3 Old Densities
No Damping of Long Wave Oscillations

Convergence Criteria:
    Total Energy Change: 0.0005 eV / electron
    Integral of Absolute Density Change: 0.0001 electrons
    Integral of Absolute Eigenstate Change: 4e-08 eV^2
Number of Atoms: 3
Number of Atomic Orbitals: 6
Number of Bands in Calculation: 6
Bands to Converge: Occupied States Only
Number of Valence Electrons: 8
                     log10-error:    Total        Iterations:
           Time      WFS    Density  Energy       Fermi  Poisson
iter:   1  17:05:25  +0.67          -15.714725    0      12     
iter:   2  17:05:26  +0.20  -1.49   -15.697325    0      8      
iter:   3  17:05:27  -0.83  -1.67   -15.661514    0      9      
iter:   4  17:05:28  -1.40  -2.36   -15.661688    0      6      
iter:   5  17:05:29  -1.87  -2.58   -15.661718    0      5      
iter:   6  17:05:30  -2.32  -2.93   -15.661837    0      5      
iter:   7  17:05:31  -2.44  -3.16   -15.661910    0      4      
iter:   8  17:05:31  -2.97  -3.27   -15.661919    0      4      
iter:   9  17:05:32  -2.98  -3.41   -15.661817    0      4      
iter:  10  17:05:33  -3.41  -3.64   -15.661941    0      3      
iter:  11  17:05:33  -3.70  -3.88   -15.661932    0      3      
iter:  12  17:05:34  -3.98  -4.12   -15.661829    0      2      
iter:  13  17:05:34  -4.27  -4.21   -15.661804    0      2      
iter:  14  17:05:35  -4.52  -4.46   -15.661948    0      1      
iter:  15  17:05:35  -4.77  -4.59   -15.661898    0      2      
iter:  16  17:05:36  -5.03  -5.05   -15.661905    0      1      
iter:  17  17:05:36  -5.26  -5.21   -15.661865    0      1      
iter:  18  17:05:36  -5.52  -5.24   -15.661843    0      1      
iter:  19  17:05:37  -5.74  -5.52   -15.661849    0      1      
iter:  20  17:05:37  -6.00  -5.66   -15.661858    0      1      
iter:  21  17:05:38  -6.22  -5.80   -15.661862    0      1      
iter:  22  17:05:38  -6.47  -6.01   -15.661865    0      1      
iter:  23  17:05:39  -6.68  -6.15   -15.661866    0      1      
iter:  24  17:05:39  -6.94  -6.29   -15.661864    0      1      
iter:  25  17:05:39  -7.15  -6.27   -15.661862    0      1      
iter:  26  17:05:40  -7.40  -6.20   -15.661860    0      1      
------------------------------------
Converged After 26 Iterations.

Energy Contributions Relative to Reference Atoms:(reference = -2052.165985)
-------------------------
Kinetic:        +16.768887
Potential:      -19.195910
External:        -0.461931
XC:             -13.427218
Entropy (-ST):   -0.000000
Local:           +0.654311
-------------------------
Free Energy:    -15.661860
Zero Kelvin:    -15.661860

Fermi Level: -3.42578
 Band  Eigenvalues  Occupancy
    0    -24.10527    2.00000
    1    -12.34046    2.00000
    2     -8.47808    2.00000
    3     -6.61950    2.00000
    4     -0.23205    0.00000
    5      0.73477    0.00000


Dipole Moment: [  2.43565896e-01   3.56988014e-01   8.70845367e-13]

Forces in eV/Ang:
  0 O     0.39595   -0.21385   -0.00000
  1 H     0.14543    0.10333    0.00000
  2 H     0.12591    0.16150   -0.00000

Positions:
  0 O     4.4438    4.2639    4.7586
  1 H     3.9903    5.1198    4.7586
  2 H     5.4167    4.4359    4.7586

       .----------------------------.  
      /|                            |  
     / |                            |  
    /  |                            |  
   /   |                            |  
  /    |                            |  
 *     |                            |  
 |     |                            |  
 |     |                            |  
 |     |      HO H                  |  
 |     |                            |  
 |     |                            |  
 |     .----------------------------.  
 |    /                            /   
 |   /                            /    
 |  /                            /     
 | /                            /      
 |/                            /       
 *----------------------------*        

Unit Cell:
           Periodic     X           Y           Z      Points  Spacing
  --------------------------------------------------------------------
  1. axis:    no    11.614657    0.000000    0.000000    60     0.1936
  2. axis:    no     0.000000    9.136244    0.000000    44     0.2076
  3. axis:    no     0.000000    0.000000    9.517122    48     0.1983

O-setup:
  name   : Oxygen
  id     : 9b9d51c344dea68c822856295a461509
  Z      : 8
  valence: 6
  core   : 2
  charge : 0.0
  file   : /Users/asod/Dropbox/HI/gpaw-setups/gpaw-setups-0.9.20000/O.LDA.gz
  cutoffs: 0.67(comp), 1.17(filt), 0.83(core), lmax=2
  valence states:
            energy   radius
    2s(2.00) -23.752   0.688
    2p(4.00)  -9.195   0.598
    *s       3.459   0.688
    *p      18.016   0.598
    *d       0.000   0.619

Using partial waves for O as LCAO basis

H-setup:
  name   : Hydrogen
  id     : 4766778ce56282eaa64abeb28b7c1de3
  Z      : 1
  valence: 1
  core   : 0
  charge : 0.0
  file   : /Users/asod/Dropbox/HI/gpaw-setups/gpaw-setups-0.9.20000/H.LDA.gz
  cutoffs: 0.48(comp), 0.85(filt), 0.53(core), lmax=2
  valence states:
            energy   radius
    1s(1.00)  -6.353   0.476
    *s      20.858   0.476
    *p       0.000   0.476

Using partial waves for H as LCAO basis

Using the LDA Exchange-Correlation Functional.
Spin-Paired Calculation
Total Charge: 0.000000
Fermi Temperature: 0.000000
Wave functions: Uniform real-space grid
Kinetic energy operator: 6*3+1=19 point O(h^6) finite-difference Laplacian
Eigensolver: Davidson(niter=1, smin=None, normalize=True)
XC and Coulomb potentials evaluated on a 120*88*96 grid
Interpolation: tri-quintic (5. degree polynomial)
Poisson solver: Jacobi solver with 4 multi-grid levels
    Coarsest grid: 15 x 11 x 12 points
    Stencil: 6*3+1=19 point O(h^6) finite-difference Laplacian
    Tolerance: 2.000000e-10
    Max iterations: 1000
Reference Energy: -2052.165985

Total number of cores used: 1
MatrixOperator buffer_size: default value or 
                            see value of nblock in input file
Diagonalizer layout: Serial LAPACK
Orthonormalizer layout: Serial LAPACK

External potential:
    Point-charge potential (points: 3, cutoffs: 0.020, inf, inf Ang)

Symmetries present (total): 1

  ( 1  0  0)
  ( 0  1  0)
  ( 0  0  1)

1 k-point (Gamma)
1 k-point in the Irreducible Part of the Brillouin Zone

          k-points in crystal coordinates                weights
   0:     0.00000000    0.00000000    0.00000000          1/1

Mixer Type: Mixer
Linear Mixing Parameter: 0.25
Mixing with 3 Old Densities
No Damping of Long Wave Oscillations

Convergence Criteria:
    Total Energy Change: 0.0005 eV / electron
    Integral of Absolute Density Change: 0.0001 electrons
    Integral of Absolute Eigenstate Change: 4e-08 eV^2
Number of Atoms: 3
Number of Atomic Orbitals: 6
Number of Bands in Calculation: 6
Bands to Converge: Occupied States Only
Number of Valence Electrons: 8
                     log10-error:    Total        Iterations:
           Time      WFS    Density  Energy       Fermi  Poisson
iter:   1  17:05:42  +0.63          -15.749796    0      12     
iter:   2  17:05:43  +0.18  -1.50   -15.732765    0      8      
iter:   3  17:05:44  -0.86  -1.69   -15.699727    0      9      
iter:   4  17:05:45  -1.41  -2.38   -15.699954    0      6      
iter:   5  17:05:46  -1.88  -2.60   -15.699996    0      5      
iter:   6  17:05:46  -2.34  -2.95   -15.700109    0      5      
iter:   7  17:05:47  -2.47  -3.18   -15.700183    0      4      
iter:   8  17:05:48  -2.96  -3.29   -15.700182    0      4      
iter:   9  17:05:49  -3.02  -3.47   -15.700095    0      4      
iter:  10  17:05:49  -3.44  -3.71   -15.700203    0      3      
iter:  11  17:05:50  -3.68  -3.91   -15.700191    0      3      
iter:  12  17:05:50  -4.00  -4.12   -15.700098    0      2      
iter:  13  17:05:51  -4.24  -4.23   -15.700097    0      2      
iter:  14  17:05:51  -4.51  -4.47   -15.700212    0      1      
iter:  15  17:05:52  -4.72  -4.69   -15.700147    0      2      
iter:  16  17:05:52  -4.99  -5.11   -15.700139    0      1      
iter:  17  17:05:52  -5.21  -5.13   -15.700137    0      1      
iter:  18  17:05:53  -5.48  -5.08   -15.700102    0      1      
iter:  19  17:05:53  -5.69  -4.68   -15.700164    0      1      
iter:  20  17:05:54  -5.98  -5.19   -15.700151    0      1      
iter:  21  17:05:54  -6.15  -5.32   -15.700124    0      1      
iter:  22  17:05:55  -6.46  -6.00   -15.700135    0      1      
iter:  23  17:05:55  -6.62  -5.99   -15.700134    0      1      
iter:  24  17:05:55  -6.93  -5.93   -15.700130    0      1      
iter:  25  17:05:56  -7.09  -5.67   -15.700140    0      1      
iter:  26  17:05:56  -7.38  -5.99   -15.700145    0      1      
iter:  27  17:05:57  -7.53  -5.98   -15.700130    0      1      
------------------------------------
Converged After 27 Iterations.

Energy Contributions Relative to Reference Atoms:(reference = -2052.165985)
-------------------------
Kinetic:        +16.575628
Potential:      -19.035027
External:        -0.510569
XC:             -13.384430
Entropy (-ST):   -0.000000
Local:           +0.654268
-------------------------
Free Energy:    -15.700130
Zero Kelvin:    -15.700130

Fermi Level: -3.38415
 Band  Eigenvalues  Occupancy
    0    -24.01488    2.00000
    1    -12.28666    2.00000
    2     -8.38387    2.00000
    3     -6.55687    2.00000
    4     -0.21144    0.00000
    5      0.73221    0.00000


Dipole Moment: [  2.45643426e-01   3.54871350e-01   1.14608784e-12]

Forces in eV/Ang:
  0 O     0.49531   -0.21713   -0.00000
  1 H     0.19139    0.10613    0.00000
  2 H     0.09486    0.15020   -0.00000

Positions:
  0 O     4.4567    4.2642    4.7586
  1 H     3.9933    5.1147    4.7586
  2 H     5.4331    4.4425    4.7586

       .----------------------------.  
      /|                            |  
     / |                            |  
    /  |                            |  
   /   |                            |  
  /    |                            |  
 *     |                            |  
 |     |                            |  
 |     |                            |  
 |     |      HO H                  |  
 |     |                            |  
 |     |                            |  
 |     .----------------------------.  
 |    /                            /   
 |   /                            /    
 |  /                            /     
 | /                            /      
 |/                            /       
 *----------------------------*        

Unit Cell:
           Periodic     X           Y           Z      Points  Spacing
  --------------------------------------------------------------------
  1. axis:    no    11.614657    0.000000    0.000000    60     0.1936
  2. axis:    no     0.000000    9.136244    0.000000    44     0.2076
  3. axis:    no     0.000000    0.000000    9.517122    48     0.1983

O-setup:
  name   : Oxygen
  id     : 9b9d51c344dea68c822856295a461509
  Z      : 8
  valence: 6
  core   : 2
  charge : 0.0
  file   : /Users/asod/Dropbox/HI/gpaw-setups/gpaw-setups-0.9.20000/O.LDA.gz
  cutoffs: 0.67(comp), 1.17(filt), 0.83(core), lmax=2
  valence states:
            energy   radius
    2s(2.00) -23.752   0.688
    2p(4.00)  -9.195   0.598
    *s       3.459   0.688
    *p      18.016   0.598
    *d       0.000   0.619

Using partial waves for O as LCAO basis

H-setup:
  name   : Hydrogen
  id     : 4766778ce56282eaa64abeb28b7c1de3
  Z      : 1
  valence: 1
  core   : 0
  charge : 0.0
  file   : /Users/asod/Dropbox/HI/gpaw-setups/gpaw-setups-0.9.20000/H.LDA.gz
  cutoffs: 0.48(comp), 0.85(filt), 0.53(core), lmax=2
  valence states:
            energy   radius
    1s(1.00)  -6.353   0.476
    *s      20.858   0.476
    *p       0.000   0.476

Using partial waves for H as LCAO basis

Using the LDA Exchange-Correlation Functional.
Spin-Paired Calculation
Total Charge: 0.000000
Fermi Temperature: 0.000000
Wave functions: Uniform real-space grid
Kinetic energy operator: 6*3+1=19 point O(h^6) finite-difference Laplacian
Eigensolver: Davidson(niter=1, smin=None, normalize=True)
XC and Coulomb potentials evaluated on a 120*88*96 grid
Interpolation: tri-quintic (5. degree polynomial)
Poisson solver: Jacobi solver with 4 multi-grid levels
    Coarsest grid: 15 x 11 x 12 points
    Stencil: 6*3+1=19 point O(h^6) finite-difference Laplacian
    Tolerance: 2.000000e-10
    Max iterations: 1000
Reference Energy: -2052.165985

Total number of cores used: 1
MatrixOperator buffer_size: default value or 
                            see value of nblock in input file
Diagonalizer layout: Serial LAPACK
Orthonormalizer layout: Serial LAPACK

External potential:
    Point-charge potential (points: 3, cutoffs: 0.020, inf, inf Ang)

Symmetries present (total): 1

  ( 1  0  0)
  ( 0  1  0)
  ( 0  0  1)

1 k-point (Gamma)
1 k-point in the Irreducible Part of the Brillouin Zone

          k-points in crystal coordinates                weights
   0:     0.00000000    0.00000000    0.00000000          1/1

Mixer Type: Mixer
Linear Mixing Parameter: 0.25
Mixing with 3 Old Densities
No Damping of Long Wave Oscillations

Convergence Criteria:
    Total Energy Change: 0.0005 eV / electron
    Integral of Absolute Density Change: 0.0001 electrons
    Integral of Absolute Eigenstate Change: 4e-08 eV^2
Number of Atoms: 3
Number of Atomic Orbitals: 6
Number of Bands in Calculation: 6
Bands to Converge: Occupied States Only
Number of Valence Electrons: 8
                     log10-error:    Total        Iterations:
           Time      WFS    Density  Energy       Fermi  Poisson
iter:   1  17:05:58  +0.53          -15.780631    0      12     
iter:   2  17:05:59  +0.09  -1.54   -15.766600    0      8      
iter:   3  17:06:01  -0.94  -1.73   -15.740216    0      9      
iter:   4  17:06:02  -1.49  -2.42   -15.740417    0      6      
iter:   5  17:06:02  -1.93  -2.65   -15.740455    0      5      
iter:   6  17:06:03  -2.34  -3.00   -15.740559    0      5      
iter:   7  17:06:04  -2.53  -3.21   -15.740634    0      4      
iter:   8  17:06:05  -2.97  -3.32   -15.740624    0      4      
iter:   9  17:06:05  -3.09  -3.51   -15.740546    0      4      
iter:  10  17:06:06  -3.42  -3.74   -15.740654    0      3      
iter:  11  17:06:07  -3.69  -3.96   -15.740633    0      3      
iter:  12  17:06:07  -3.96  -4.13   -15.740461    0      2      
iter:  13  17:06:08  -4.24  -4.31   -15.740601    0      2      
iter:  14  17:06:08  -4.46  -4.58   -15.740655    0      2      
iter:  15  17:06:09  -4.66  -4.77   -15.740484    0      1      
iter:  16  17:06:09  -4.95  -4.83   -15.740526    0      1      
iter:  17  17:06:10  -5.15  -4.82   -15.740578    0      1      
iter:  18  17:06:10  -5.40  -4.76   -15.740608    0      1      
iter:  19  17:06:10  -5.60  -4.71   -15.740451    0      1      
iter:  20  17:06:11  -5.79  -4.85   -15.740566    0      1      
iter:  21  17:06:11  -6.10  -4.86   -15.740590    0      1      
iter:  22  17:06:12  -6.31  -4.99   -15.740632    0      1      
iter:  23  17:06:12  -6.53  -5.65   -15.740603    0      1      
iter:  24  17:06:12  -6.86  -5.66   -15.740582    0      1      
iter:  25  17:06:13  -7.07  -5.80   -15.740576    0      1      
iter:  26  17:06:13  -7.37  -6.24   -15.740586    0      1      
iter:  27  17:06:14  -7.59  -6.41   -15.740586    0      1      
------------------------------------
Converged After 27 Iterations.

Energy Contributions Relative to Reference Atoms:(reference = -2052.165985)
-------------------------
Kinetic:        +16.334033
Potential:      -18.840815
External:        -0.563498
XC:             -13.325291
Entropy (-ST):   -0.000000
Local:           +0.654986
-------------------------
Free Energy:    -15.740586
Zero Kelvin:    -15.740586

Fermi Level: -3.34673
 Band  Eigenvalues  Occupancy
    0    -23.92577    2.00000
    1    -12.21022    2.00000
    2     -8.30674    2.00000
    3     -6.49590    2.00000
    4     -0.19757    0.00000
    5      0.72811    0.00000


Dipole Moment: [  2.49212509e-01   3.53356554e-01   1.45358504e-12]

Forces in eV/Ang:
  0 O     0.61297   -0.19361   -0.00000
  1 H     0.20550    0.12085    0.00000
  2 H     0.02322    0.08657   -0.00000

Positions:
  0 O     4.4559    4.2623    4.7586
  1 H     3.9970    5.1147    4.7586
  2 H     5.4347    4.4442    4.7586

       .----------------------------.  
      /|                            |  
     / |                            |  
    /  |                            |  
   /   |                            |  
  /    |                            |  
 *     |                            |  
 |     |                            |  
 |     |                            |  
 |     |      HO H                  |  
 |     |                            |  
 |     |                            |  
 |     .----------------------------.  
 |    /                            /   
 |   /                            /    
 |  /                            /     
 | /                            /      
 |/                            /       
 *----------------------------*        

Unit Cell:
           Periodic     X           Y           Z      Points  Spacing
  --------------------------------------------------------------------
  1. axis:    no    11.614657    0.000000    0.000000    60     0.1936
  2. axis:    no     0.000000    9.136244    0.000000    44     0.2076
  3. axis:    no     0.000000    0.000000    9.517122    48     0.1983

O-setup:
  name   : Oxygen
  id     : 9b9d51c344dea68c822856295a461509
  Z      : 8
  valence: 6
  core   : 2
  charge : 0.0
  file   : /Users/asod/Dropbox/HI/gpaw-setups/gpaw-setups-0.9.20000/O.LDA.gz
  cutoffs: 0.67(comp), 1.17(filt), 0.83(core), lmax=2
  valence states:
            energy   radius
    2s(2.00) -23.752   0.688
    2p(4.00)  -9.195   0.598
    *s       3.459   0.688
    *p      18.016   0.598
    *d       0.000   0.619

Using partial waves for O as LCAO basis

H-setup:
  name   : Hydrogen
  id     : 4766778ce56282eaa64abeb28b7c1de3
  Z      : 1
  valence: 1
  core   : 0
  charge : 0.0
  file   : /Users/asod/Dropbox/HI/gpaw-setups/gpaw-setups-0.9.20000/H.LDA.gz
  cutoffs: 0.48(comp), 0.85(filt), 0.53(core), lmax=2
  valence states:
            energy   radius
    1s(1.00)  -6.353   0.476
    *s      20.858   0.476
    *p       0.000   0.476

Using partial waves for H as LCAO basis

Using the LDA Exchange-Correlation Functional.
Spin-Paired Calculation
Total Charge: 0.000000
Fermi Temperature: 0.000000
Wave functions: Uniform real-space grid
Kinetic energy operator: 6*3+1=19 point O(h^6) finite-difference Laplacian
Eigensolver: Davidson(niter=1, smin=None, normalize=True)
XC and Coulomb potentials evaluated on a 120*88*96 grid
Interpolation: tri-quintic (5. degree polynomial)
Poisson solver: Jacobi solver with 4 multi-grid levels
    Coarsest grid: 15 x 11 x 12 points
    Stencil: 6*3+1=19 point O(h^6) finite-difference Laplacian
    Tolerance: 2.000000e-10
    Max iterations: 1000
Reference Energy: -2052.165985

Total number of cores used: 1
MatrixOperator buffer_size: default value or 
                            see value of nblock in input file
Diagonalizer layout: Serial LAPACK
Orthonormalizer layout: Serial LAPACK

External potential:
    Point-charge potential (points: 3, cutoffs: 0.020, inf, inf Ang)

Symmetries present (total): 1

  ( 1  0  0)
  ( 0  1  0)
  ( 0  0  1)

1 k-point (Gamma)
1 k-point in the Irreducible Part of the Brillouin Zone

          k-points in crystal coordinates                weights
   0:     0.00000000    0.00000000    0.00000000          1/1

Mixer Type: Mixer
Linear Mixing Parameter: 0.25
Mixing with 3 Old Densities
No Damping of Long Wave Oscillations

Convergence Criteria:
    Total Energy Change: 0.0005 eV / electron
    Integral of Absolute Density Change: 0.0001 electrons
    Integral of Absolute Eigenstate Change: 4e-08 eV^2
Number of Atoms: 3
Number of Atomic Orbitals: 6
Number of Bands in Calculation: 6
Bands to Converge: Occupied States Only
Number of Valence Electrons: 8
                     log10-error:    Total        Iterations:
           Time      WFS    Density  Energy       Fermi  Poisson
iter:   1  17:06:15  -0.99          -15.746643    0      10     
iter:   2  17:06:16  -1.50  -2.37   -15.746554    0      5      
iter:   3  17:06:17  -2.45  -2.56   -15.746023    0      5      
iter:   4  17:06:18  -2.98  -3.05   -15.745966    0      5      
iter:   5  17:06:18  -3.35  -3.42   -15.745896    0      3      
iter:   6  17:06:19  -3.85  -3.63   -15.745933    0      4      
iter:   7  17:06:20  -4.06  -4.05   -15.745940    0      3      
iter:   8  17:06:20  -4.39  -4.52   -15.745848    0      1      
iter:   9  17:06:21  -4.59  -4.58   -15.745832    0      1      
iter:  10  17:06:21  -4.89  -4.67   -15.745852    0      1      
iter:  11  17:06:21  -5.06  -4.83   -15.745903    0      1      
iter:  12  17:06:22  -5.36  -5.17   -15.745941    0      1      
iter:  13  17:06:22  -5.52  -5.58   -15.745937    0      1      
iter:  14  17:06:23  -5.81  -5.53   -15.745938    0      1      
iter:  15  17:06:23  -5.97  -5.38   -15.745935    0      1      
iter:  16  17:06:24  -6.26  -5.35   -15.745943    0      1      
iter:  17  17:06:24  -6.40  -5.15   -15.745932    0      1      
iter:  18  17:06:24  -6.70  -5.21   -15.745926    0      1      
iter:  19  17:06:25  -6.81  -5.40   -15.745925    0      1      
iter:  20  17:06:25  -7.10  -5.62   -15.745930    0      1      
iter:  21  17:06:26  -7.25  -5.92   -15.745933    0      1      
iter:  22  17:06:26  -7.54  -5.97   -15.745933    0      1      
------------------------------------
Converged After 22 Iterations.

Energy Contributions Relative to Reference Atoms:(reference = -2052.165985)
-------------------------
Kinetic:        +16.239267
Potential:      -18.772549
External:        -0.571505
XC:             -13.296093
Entropy (-ST):   -0.000000
Local:           +0.654946
-------------------------
Free Energy:    -15.745933
Zero Kelvin:    -15.745933

Fermi Level: -3.34316
 Band  Eigenvalues  Occupancy
    0    -23.91314    2.00000
    1    -12.16727    2.00000
    2     -8.31829    2.00000
    3     -6.48775    2.00000
    4     -0.19858    0.00000
    5      0.72757    0.00000


Dipole Moment: [  2.51895245e-01   3.54318288e-01   1.52075593e-12]

Forces in eV/Ang:
  0 O     0.76415   -0.16482   -0.00000
  1 H     0.16512    0.14009    0.00000
  2 H    -0.07056    0.02622   -0.00000

Positions:
  0 O     4.4523    4.2531    4.7586
  1 H     4.0108    5.1184    4.7586
  2 H     5.4324    4.4474    4.7586

       .----------------------------.  
      /|                            |  
     / |                            |  
    /  |                            |  
   /   |                            |  
  /    |                            |  
 *     |                            |  
 |     |                            |  
 |     |                            |  
 |     |      HO H                  |  
 |     |                            |  
 |     |                            |  
 |     .----------------------------.  
 |    /                            /   
 |   /                            /    
 |  /                            /     
 | /                            /      
 |/                            /       
 *----------------------------*        

Unit Cell:
           Periodic     X           Y           Z      Points  Spacing
  --------------------------------------------------------------------
  1. axis:    no    11.614657    0.000000    0.000000    60     0.1936
  2. axis:    no     0.000000    9.136244    0.000000    44     0.2076
  3. axis:    no     0.000000    0.000000    9.517122    48     0.1983

O-setup:
  name   : Oxygen
  id     : 9b9d51c344dea68c822856295a461509
  Z      : 8
  valence: 6
  core   : 2
  charge : 0.0
  file   : /Users/asod/Dropbox/HI/gpaw-setups/gpaw-setups-0.9.20000/O.LDA.gz
  cutoffs: 0.67(comp), 1.17(filt), 0.83(core), lmax=2
  valence states:
            energy   radius
    2s(2.00) -23.752   0.688
    2p(4.00)  -9.195   0.598
    *s       3.459   0.688
    *p      18.016   0.598
    *d       0.000   0.619

Using partial waves for O as LCAO basis

H-setup:
  name   : Hydrogen
  id     : 4766778ce56282eaa64abeb28b7c1de3
  Z      : 1
  valence: 1
  core   : 0
  charge : 0.0
  file   : /Users/asod/Dropbox/HI/gpaw-setups/gpaw-setups-0.9.20000/H.LDA.gz
  cutoffs: 0.48(comp), 0.85(filt), 0.53(core), lmax=2
  valence states:
            energy   radius
    1s(1.00)  -6.353   0.476
    *s      20.858   0.476
    *p       0.000   0.476

Using partial waves for H as LCAO basis

Using the LDA Exchange-Correlation Functional.
Spin-Paired Calculation
Total Charge: 0.000000
Fermi Temperature: 0.000000
Wave functions: Uniform real-space grid
Kinetic energy operator: 6*3+1=19 point O(h^6) finite-difference Laplacian
Eigensolver: Davidson(niter=1, smin=None, normalize=True)
XC and Coulomb potentials evaluated on a 120*88*96 grid
Interpolation: tri-quintic (5. degree polynomial)
Poisson solver: Jacobi solver with 4 multi-grid levels
    Coarsest grid: 15 x 11 x 12 points
    Stencil: 6*3+1=19 point O(h^6) finite-difference Laplacian
    Tolerance: 2.000000e-10
    Max iterations: 1000
Reference Energy: -2052.165985

Total number of cores used: 1
MatrixOperator buffer_size: default value or 
                            see value of nblock in input file
Diagonalizer layout: Serial LAPACK
Orthonormalizer layout: Serial LAPACK

External potential:
    Point-charge potential (points: 3, cutoffs: 0.020, inf, inf Ang)

Symmetries present (total): 1

  ( 1  0  0)
  ( 0  1  0)
  ( 0  0  1)

1 k-point (Gamma)
1 k-point in the Irreducible Part of the Brillouin Zone

          k-points in crystal coordinates                weights
   0:     0.00000000    0.00000000    0.00000000          1/1

Mixer Type: Mixer
Linear Mixing Parameter: 0.25
Mixing with 3 Old Densities
No Damping of Long Wave Oscillations

Convergence Criteria:
    Total Energy Change: 0.0005 eV / electron
    Integral of Absolute Density Change: 0.0001 electrons
    Integral of Absolute Eigenstate Change: 4e-08 eV^2
Number of Atoms: 3
Number of Atomic Orbitals: 6
Number of Bands in Calculation: 6
Bands to Converge: Occupied States Only
Number of Valence Electrons: 8
                     log10-error:    Total        Iterations:
           Time      WFS    Density  Energy       Fermi  Poisson
iter:   1  17:06:28  +0.33          -15.770678    0      12     
iter:   2  17:06:29  -0.19  -1.72   -15.766751    0      7      
iter:   3  17:06:30  -1.15  -1.90   -15.754429    0      7      
iter:   4  17:06:31  -1.68  -2.41   -15.754154    0      6      
iter:   5  17:06:32  -2.06  -2.75   -15.754040    0      5      
iter:   6  17:06:33  -2.54  -2.98   -15.754141    0      6      
iter:   7  17:06:33  -2.71  -3.19   -15.754098    0      4      
iter:   8  17:06:34  -3.18  -3.53   -15.754040    0      3      
iter:   9  17:06:35  -3.20  -3.74   -15.754118    0      4      
iter:  10  17:06:35  -3.78  -3.97   -15.754015    0      2      
iter:  11  17:06:36  -3.79  -4.06   -15.754111    0      2      
iter:  12  17:06:36  -4.28  -4.17   -15.754125    0      2      
iter:  13  17:06:37  -4.33  -4.54   -15.754136    0      2      
iter:  14  17:06:37  -4.74  -4.77   -15.754131    0      1      
iter:  15  17:06:38  -4.85  -4.91   -15.754116    0      2      
iter:  16  17:06:38  -5.19  -5.29   -15.754098    0      1      
iter:  17  17:06:39  -5.33  -5.34   -15.754103    0      1      
iter:  18  17:06:39  -5.64  -5.39   -15.754113    0      1      
iter:  19  17:06:39  -5.79  -5.45   -15.754102    0      1      
iter:  20  17:06:40  -6.10  -5.66   -15.754125    0      1      
iter:  21  17:06:40  -6.25  -5.90   -15.754134    0      1      
iter:  22  17:06:41  -6.54  -6.12   -15.754133    0      1      
iter:  23  17:06:41  -6.70  -6.33   -15.754130    0      1      
iter:  24  17:06:41  -6.97  -6.21   -15.754131    0      1      
iter:  25  17:06:42  -7.14  -6.07   -15.754129    0      1      
iter:  26  17:06:42  -7.41  -6.04   -15.754128    0      1      
------------------------------------
Converged After 26 Iterations.

Energy Contributions Relative to Reference Atoms:(reference = -2052.165985)
-------------------------
Kinetic:        +16.008182
Potential:      -18.618258
External:        -0.579849
XC:             -13.217449
Entropy (-ST):   -0.000000
Local:           +0.653246
-------------------------
Free Energy:    -15.754128
Zero Kelvin:    -15.754128

Fermi Level: -3.34306
 Band  Eigenvalues  Occupancy
    0    -23.89854    2.00000
    1    -12.03508    2.00000
    2     -8.39247    2.00000
    3     -6.47844    2.00000
    4     -0.20768    0.00000
    5      0.72338    0.00000


Dipole Moment: [  2.57867570e-01   3.59451545e-01   1.73517450e-12]

Forces in eV/Ang:
  0 O     0.90406    0.10873   -0.00000
  1 H     0.10593   -0.02632   -0.00000
  2 H    -0.13032   -0.14175   -0.00000

Positions:
  0 O     4.4497    4.2512    4.7586
  1 H     4.0156    5.1198    4.7586
  2 H     5.4289    4.4458    4.7586

       .----------------------------.  
      /|                            |  
     / |                            |  
    /  |                            |  
   /   |                            |  
  /    |                            |  
 *     |                            |  
 |     |                            |  
 |     |                            |  
 |     |      HO H                  |  
 |     |                            |  
 |     |                            |  
 |     .----------------------------.  
 |    /                            /   
 |   /                            /    
 |  /                            /     
 | /                            /      
 |/                            /       
 *----------------------------*        

Unit Cell:
           Periodic     X           Y           Z      Points  Spacing
  --------------------------------------------------------------------
  1. axis:    no    11.614657    0.000000    0.000000    60     0.1936
  2. axis:    no     0.000000    9.136244    0.000000    44     0.2076
  3. axis:    no     0.000000    0.000000    9.517122    48     0.1983

O-setup:
  name   : Oxygen
  id     : 9b9d51c344dea68c822856295a461509
  Z      : 8
  valence: 6
  core   : 2
  charge : 0.0
  file   : /Users/asod/Dropbox/HI/gpaw-setups/gpaw-setups-0.9.20000/O.LDA.gz
  cutoffs: 0.67(comp), 1.17(filt), 0.83(core), lmax=2
  valence states:
            energy   radius
    2s(2.00) -23.752   0.688
    2p(4.00)  -9.195   0.598
    *s       3.459   0.688
    *p      18.016   0.598
    *d       0.000   0.619

Using partial waves for O as LCAO basis

H-setup:
  name   : Hydrogen
  id     : 4766778ce56282eaa64abeb28b7c1de3
  Z      : 1
  valence: 1
  core   : 0
  charge : 0.0
  file   : /Users/asod/Dropbox/HI/gpaw-setups/gpaw-setups-0.9.20000/H.LDA.gz
  cutoffs: 0.48(comp), 0.85(filt), 0.53(core), lmax=2
  valence states:
            energy   radius
    1s(1.00)  -6.353   0.476
    *s      20.858   0.476
    *p       0.000   0.476

Using partial waves for H as LCAO basis

Using the LDA Exchange-Correlation Functional.
Spin-Paired Calculation
Total Charge: 0.000000
Fermi Temperature: 0.000000
Wave functions: Uniform real-space grid
Kinetic energy operator: 6*3+1=19 point O(h^6) finite-difference Laplacian
Eigensolver: Davidson(niter=1, smin=None, normalize=True)
XC and Coulomb potentials evaluated on a 120*88*96 grid
Interpolation: tri-quintic (5. degree polynomial)
Poisson solver: Jacobi solver with 4 multi-grid levels
    Coarsest grid: 15 x 11 x 12 points
    Stencil: 6*3+1=19 point O(h^6) finite-difference Laplacian
    Tolerance: 2.000000e-10
    Max iterations: 1000
Reference Energy: -2052.165985

Total number of cores used: 1
MatrixOperator buffer_size: default value or 
                            see value of nblock in input file
Diagonalizer layout: Serial LAPACK
Orthonormalizer layout: Serial LAPACK

External potential:
    Point-charge potential (points: 3, cutoffs: 0.020, inf, inf Ang)

Symmetries present (total): 1

  ( 1  0  0)
  ( 0  1  0)
  ( 0  0  1)

1 k-point (Gamma)
1 k-point in the Irreducible Part of the Brillouin Zone

          k-points in crystal coordinates                weights
   0:     0.00000000    0.00000000    0.00000000          1/1

Mixer Type: Mixer
Linear Mixing Parameter: 0.25
Mixing with 3 Old Densities
No Damping of Long Wave Oscillations

Convergence Criteria:
    Total Energy Change: 0.0005 eV / electron
    Integral of Absolute Density Change: 0.0001 electrons
    Integral of Absolute Eigenstate Change: 4e-08 eV^2
Number of Atoms: 3
Number of Atomic Orbitals: 6
Number of Bands in Calculation: 6
Bands to Converge: Occupied States Only
Number of Valence Electrons: 8
                     log10-error:    Total        Iterations:
           Time      WFS    Density  Energy       Fermi  Poisson
iter:   1  17:06:44  -0.65          -15.753345    0      11     
iter:   2  17:06:45  -1.13  -2.19   -15.752954    0      5      
iter:   3  17:06:46  -2.12  -2.38   -15.751612    0      6      
iter:   4  17:06:47  -2.66  -2.92   -15.751599    0      5      
iter:   5  17:06:47  -3.16  -3.17   -15.751599    0      4      
iter:   6  17:06:48  -3.42  -3.54   -15.751593    0      3      
iter:   7  17:06:48  -3.71  -3.72   -15.751478    0      3      
iter:   8  17:06:49  -4.15  -3.93   -15.751527    0      3      
iter:   9  17:06:50  -4.29  -4.13   -15.751565    0      3      
iter:  10  17:06:50  -4.48  -4.37   -15.751477    0      2      
iter:  11  17:06:51  -4.87  -4.54   -15.751472    0      2      
iter:  12  17:06:51  -5.00  -4.70   -15.751809    0      1      
iter:  13  17:06:52  -5.30  -4.81   -15.751480    0      1      
iter:  14  17:06:52  -5.49  -4.98   -15.751358    0      1      
iter:  15  17:06:52  -5.76  -5.26   -15.751544    0      1      
iter:  16  17:06:53  -5.96  -5.30   -15.751567    0      1      
iter:  17  17:06:53  -6.23  -5.29   -15.751559    0      1      
iter:  18  17:06:54  -6.40  -5.48   -15.751547    0      1      
iter:  19  17:06:54  -6.67  -5.56   -15.751541    0      1      
iter:  20  17:06:54  -6.84  -5.78   -15.751548    0      1      
iter:  21  17:06:55  -7.10  -6.05   -15.751559    0      1      
iter:  22  17:06:55  -7.26  -6.29   -15.751549    0      1      
iter:  23  17:06:56  -7.54  -6.35   -15.751545    0      1      
------------------------------------
Converged After 23 Iterations.

Energy Contributions Relative to Reference Atoms:(reference = -2052.165985)
-------------------------
Kinetic:        +16.090482
Potential:      -18.685538
External:        -0.574785
XC:             -13.234180
Entropy (-ST):   -0.000000
Local:           +0.652475
-------------------------
Free Energy:    -15.751545
Zero Kelvin:    -15.751545

Fermi Level: -3.34677
 Band  Eigenvalues  Occupancy
    0    -23.91758    2.00000
    1    -12.02264    2.00000
    2     -8.42105    2.00000
    3     -6.48563    2.00000
    4     -0.20792    0.00000
    5      0.72474    0.00000


Dipole Moment: [  2.59239406e-01   3.60393674e-01   1.79556367e-12]

Forces in eV/Ang:
  0 O     0.91027    0.11787   -0.00000
  1 H     0.06245   -0.01682   -0.00000
  2 H    -0.09121   -0.16510   -0.00000

Positions:
  0 O     4.4471    4.2482    4.7586
  1 H     4.0259    5.1222    4.7586
  2 H     5.4235    4.4399    4.7586

       .----------------------------.  
      /|                            |  
     / |                            |  
    /  |                            |  
   /   |                            |  
  /    |                            |  
 *     |                            |  
 |     |                            |  
 |     |                            |  
 |     |      HO H                  |  
 |     |                            |  
 |     |                            |  
 |     .----------------------------.  
 |    /                            /   
 |   /                            /    
 |  /                            /     
 | /                            /      
 |/                            /       
 *----------------------------*        

Unit Cell:
           Periodic     X           Y           Z      Points  Spacing
  --------------------------------------------------------------------
  1. axis:    no    11.614657    0.000000    0.000000    60     0.1936
  2. axis:    no     0.000000    9.136244    0.000000    44     0.2076
  3. axis:    no     0.000000    0.000000    9.517122    48     0.1983

O-setup:
  name   : Oxygen
  id     : 9b9d51c344dea68c822856295a461509
  Z      : 8
  valence: 6
  core   : 2
  charge : 0.0
  file   : /Users/asod/Dropbox/HI/gpaw-setups/gpaw-setups-0.9.20000/O.LDA.gz
  cutoffs: 0.67(comp), 1.17(filt), 0.83(core), lmax=2
  valence states:
            energy   radius
    2s(2.00) -23.752   0.688
    2p(4.00)  -9.195   0.598
    *s       3.459   0.688
    *p      18.016   0.598
    *d       0.000   0.619

Using partial waves for O as LCAO basis

H-setup:
  name   : Hydrogen
  id     : 4766778ce56282eaa64abeb28b7c1de3
  Z      : 1
  valence: 1
  core   : 0
  charge : 0.0
  file   : /Users/asod/Dropbox/HI/gpaw-setups/gpaw-setups-0.9.20000/H.LDA.gz
  cutoffs: 0.48(comp), 0.85(filt), 0.53(core), lmax=2
  valence states:
            energy   radius
    1s(1.00)  -6.353   0.476
    *s      20.858   0.476
    *p       0.000   0.476

Using partial waves for H as LCAO basis

Using the LDA Exchange-Correlation Functional.
Spin-Paired Calculation
Total Charge: 0.000000
Fermi Temperature: 0.000000
Wave functions: Uniform real-space grid
Kinetic energy operator: 6*3+1=19 point O(h^6) finite-difference Laplacian
Eigensolver: Davidson(niter=1, smin=None, normalize=True)
XC and Coulomb potentials evaluated on a 120*88*96 grid
Interpolation: tri-quintic (5. degree polynomial)
Poisson solver: Jacobi solver with 4 multi-grid levels
    Coarsest grid: 15 x 11 x 12 points
    Stencil: 6*3+1=19 point O(h^6) finite-difference Laplacian
    Tolerance: 2.000000e-10
    Max iterations: 1000
Reference Energy: -2052.165985

Total number of cores used: 1
MatrixOperator buffer_size: default value or 
                            see value of nblock in input file
Diagonalizer layout: Serial LAPACK
Orthonormalizer layout: Serial LAPACK

External potential:
    Point-charge potential (points: 3, cutoffs: 0.020, inf, inf Ang)

Symmetries present (total): 1

  ( 1  0  0)
  ( 0  1  0)
  ( 0  0  1)

1 k-point (Gamma)
1 k-point in the Irreducible Part of the Brillouin Zone

          k-points in crystal coordinates                weights
   0:     0.00000000    0.00000000    0.00000000          1/1

Mixer Type: Mixer
Linear Mixing Parameter: 0.25
Mixing with 3 Old Densities
No Damping of Long Wave Oscillations

Convergence Criteria:
    Total Energy Change: 0.0005 eV / electron
    Integral of Absolute Density Change: 0.0001 electrons
    Integral of Absolute Eigenstate Change: 4e-08 eV^2
Number of Atoms: 3
Number of Atomic Orbitals: 6
Number of Bands in Calculation: 6
Bands to Converge: Occupied States Only
Number of Valence Electrons: 8
                     log10-error:    Total        Iterations:
           Time      WFS    Density  Energy       Fermi  Poisson
iter:   1  17:06:57  -0.43          -15.755116    0      11     
iter:   2  17:06:58  -0.94  -2.07   -15.754684    0      6      
iter:   3  17:06:59  -1.86  -2.24   -15.752865    0      6      
iter:   4  17:07:00  -2.34  -2.70   -15.752872    0      5      
iter:   5  17:07:01  -2.93  -2.90   -15.752814    0      5      
iter:   6  17:07:01  -3.10  -3.33   -15.752795    0      4      
iter:   7  17:07:02  -3.64  -3.47   -15.752758    0      4      
iter:   8  17:07:03  -4.00  -3.78   -15.752743    0      3      
iter:   9  17:07:03  -4.20  -4.00   -15.752766    0      3      
iter:  10  17:07:04  -4.37  -4.63   -15.752733    0      1      
iter:  11  17:07:04  -4.66  -4.76   -15.752718    0      1      
iter:  12  17:07:05  -4.90  -4.82   -15.752666    0      1      
iter:  13  17:07:05  -5.18  -5.05   -15.752741    0      1      
iter:  14  17:07:05  -5.38  -5.12   -15.752681    0      1      
iter:  15  17:07:06  -5.65  -5.15   -15.752787    0      1      
iter:  16  17:07:06  -5.83  -5.53   -15.752792    0      1      
iter:  17  17:07:07  -6.08  -5.86   -15.752780    0      1      
iter:  18  17:07:07  -6.27  -5.94   -15.752772    0      1      
iter:  19  17:07:07  -6.53  -5.94   -15.752783    0      1      
iter:  20  17:07:08  -6.70  -5.73   -15.752775    0      1      
iter:  21  17:07:08  -6.99  -5.79   -15.752763    0      1      
iter:  22  17:07:09  -7.17  -6.17   -15.752774    0      1      
iter:  23  17:07:09  -7.44  -6.20   -15.752780    0      1      
------------------------------------
Converged After 23 Iterations.

Energy Contributions Relative to Reference Atoms:(reference = -2052.165985)
-------------------------
Kinetic:        +16.316054
Potential:      -18.861922
External:        -0.571248
XC:             -13.286699
Entropy (-ST):   -0.000000
Local:           +0.651035
-------------------------
Free Energy:    -15.752780
Zero Kelvin:    -15.752780

Fermi Level: -3.34905
 Band  Eigenvalues  Occupancy
    0    -23.95130    2.00000
    1    -12.01123    2.00000
    2     -8.45763    2.00000
    3     -6.49361    2.00000
    4     -0.20449    0.00000
    5      0.72716    0.00000


Dipole Moment: [  2.62047549e-01   3.60889632e-01   1.89407420e-12]

Forces in eV/Ang:
  0 O     0.82651    0.09418    0.00000
  1 H    -0.00685    0.00599   -0.00000
  2 H     0.06161   -0.17517   -0.00000

Positions:
  0 O     4.4448    4.2464    4.7586
  1 H     4.0351    5.1245    4.7586
  2 H     5.4206    4.4312    4.7586

       .----------------------------.  
      /|                            |  
     / |                            |  
    /  |                            |  
   /   |                            |  
  /    |                            |  
 *     |                            |  
 |     |                            |  
 |     |                            |  
 |     |      HO H                  |  
 |     |                            |  
 |     |                            |  
 |     .----------------------------.  
 |    /                            /   
 |   /                            /    
 |  /                            /     
 | /                            /      
 |/                            /       
 *----------------------------*        

Unit Cell:
           Periodic     X           Y           Z      Points  Spacing
[...]
iter:  17  17:11:01  -6.46  -5.17   -15.783953    0      1      
iter:  18  17:11:01  -6.65  -5.10   -15.783912    0      1      
iter:  19  17:11:01  -6.88  -5.18   -15.783894    0      1      
iter:  20  17:11:02  -6.93  -5.22   -15.783845    0      1      
iter:  21  17:11:02  -6.77  -5.08   -15.784010    0      1      
iter:  22  17:11:03  -7.56  -5.34   -15.783987    0      1      
------------------------------------
Converged After 22 Iterations.

Energy Contributions Relative to Reference Atoms:(reference = -2052.165985)
-------------------------
Kinetic:        +16.164047
Potential:      -18.711440
External:        -0.605792
XC:             -13.244402
Entropy (-ST):   -0.000000
Local:           +0.613600
-------------------------
Free Energy:    -15.783987
Zero Kelvin:    -15.783987

Fermi Level: -3.31019
 Band  Eigenvalues  Occupancy
    0    -23.85181    2.00000
    1    -11.89172    2.00000
    2     -8.38238    2.00000
    3     -6.40996    2.00000
    4     -0.21042    0.00000
    5      0.72679    0.00000


Dipole Moment: [  3.21142607e-01   3.17640240e-01   9.25043651e-12]

Forces in eV/Ang:
  0 O     0.92424    0.04438    0.00000
  1 H     0.00145   -0.05500   -0.00000
  2 H    -0.00280   -0.01049   -0.00000

Positions:
  0 O     4.4062    4.1682    4.7586
  1 H     4.1227    5.0975    4.7586
  2 H     5.4036    4.2170    4.7586

       .----------------------------.  
      /|                            |  
     / |                            |  
    /  |                            |  
   /   |                            |  
  /    |                            |  
 *     |                            |  
 |     |                            |  
 |     |                            |  
 |     |       O H                  |  
 |     |                            |  
 |     |                            |  
 |     .----------------------------.  
 |    /                            /   
 |   /                            /    
 |  /                            /     
 | /                            /      
 |/                            /       
 *----------------------------*        

Unit Cell:
           Periodic     X           Y           Z      Points  Spacing
  --------------------------------------------------------------------
  1. axis:    no    11.614657    0.000000    0.000000    60     0.1936
  2. axis:    no     0.000000    9.136244    0.000000    44     0.2076
  3. axis:    no     0.000000    0.000000    9.517122    48     0.1983

O-setup:
  name   : Oxygen
  id     : 9b9d51c344dea68c822856295a461509
  Z      : 8
  valence: 6
  core   : 2
  charge : 0.0
  file   : /Users/asod/Dropbox/HI/gpaw-setups/gpaw-setups-0.9.20000/O.LDA.gz
  cutoffs: 0.67(comp), 1.17(filt), 0.83(core), lmax=2
  valence states:
            energy   radius
    2s(2.00) -23.752   0.688
    2p(4.00)  -9.195   0.598
    *s       3.459   0.688
    *p      18.016   0.598
    *d       0.000   0.619

Using partial waves for O as LCAO basis

H-setup:
  name   : Hydrogen
  id     : 4766778ce56282eaa64abeb28b7c1de3
  Z      : 1
  valence: 1
  core   : 0
  charge : 0.0
  file   : /Users/asod/Dropbox/HI/gpaw-setups/gpaw-setups-0.9.20000/H.LDA.gz
  cutoffs: 0.48(comp), 0.85(filt), 0.53(core), lmax=2
  valence states:
            energy   radius
    1s(1.00)  -6.353   0.476
    *s      20.858   0.476
    *p       0.000   0.476

Using partial waves for H as LCAO basis

Using the LDA Exchange-Correlation Functional.
Spin-Paired Calculation
Total Charge: 0.000000
Fermi Temperature: 0.000000
Wave functions: Uniform real-space grid
Kinetic energy operator: 6*3+1=19 point O(h^6) finite-difference Laplacian
Eigensolver: Davidson(niter=1, smin=None, normalize=True)
XC and Coulomb potentials evaluated on a 120*88*96 grid
Interpolation: tri-quintic (5. degree polynomial)
Poisson solver: Jacobi solver with 4 multi-grid levels
    Coarsest grid: 15 x 11 x 12 points
    Stencil: 6*3+1=19 point O(h^6) finite-difference Laplacian
    Tolerance: 2.000000e-10
    Max iterations: 1000
Reference Energy: -2052.165985

Total number of cores used: 1
MatrixOperator buffer_size: default value or 
                            see value of nblock in input file
Diagonalizer layout: Serial LAPACK
Orthonormalizer layout: Serial LAPACK

External potential:
    Point-charge potential (points: 3, cutoffs: 0.020, inf, inf Ang)

Symmetries present (total): 1

  ( 1  0  0)
  ( 0  1  0)
  ( 0  0  1)

1 k-point (Gamma)
1 k-point in the Irreducible Part of the Brillouin Zone

          k-points in crystal coordinates                weights
   0:     0.00000000    0.00000000    0.00000000          1/1

Mixer Type: Mixer
Linear Mixing Parameter: 0.25
Mixing with 3 Old Densities
No Damping of Long Wave Oscillations

Convergence Criteria:
    Total Energy Change: 0.0005 eV / electron
    Integral of Absolute Density Change: 0.0001 electrons
    Integral of Absolute Eigenstate Change: 4e-08 eV^2
Number of Atoms: 3
Number of Atomic Orbitals: 6
Number of Bands in Calculation: 6
Bands to Converge: Occupied States Only
Number of Valence Electrons: 8
                     log10-error:    Total        Iterations:
           Time      WFS    Density  Energy       Fermi  Poisson
iter:   1  17:11:04  -0.68          -15.787399    0      11     
iter:   2  17:11:05  -1.21  -2.14   -15.786318    0      5      
iter:   3  17:11:06  -2.19  -2.32   -15.784564    0      6      
iter:   4  17:11:07  -2.76  -3.10   -15.784604    0      4      
iter:   5  17:11:07  -3.27  -3.28   -15.784591    0      4      
iter:   6  17:11:08  -3.77  -3.60   -15.784584    0      4      
iter:   7  17:11:09  -3.89  -3.92   -15.784535    0      3      
iter:   8  17:11:09  -4.45  -4.10   -15.784520    0      2      
iter:   9  17:11:10  -4.64  -4.25   -15.784533    0      2      
iter:  10  17:11:10  -5.05  -4.59   -15.784494    0      1      
iter:  11  17:11:10  -5.23  -4.71   -15.784531    0      1      
iter:  12  17:11:11  -5.56  -4.87   -15.784602    0      1      
iter:  13  17:11:11  -5.76  -5.12   -15.784639    0      1      
iter:  14  17:11:12  -6.09  -5.69   -15.784576    0      1      
iter:  15  17:11:12  -6.25  -5.64   -15.784575    0      1      
iter:  16  17:11:12  -6.57  -5.58   -15.784566    0      1      
iter:  17  17:11:13  -6.72  -5.52   -15.784562    0      1      
iter:  18  17:11:13  -7.00  -5.40   -15.784594    0      1      
iter:  19  17:11:14  -7.20  -5.43   -15.784541    0      1      
iter:  20  17:11:14  -7.28  -5.33   -15.784613    0      1      
iter:  21  17:11:14  -7.41  -5.47   -15.784642    0      1      
------------------------------------
Converged After 21 Iterations.

Energy Contributions Relative to Reference Atoms:(reference = -2052.165985)
-------------------------
Kinetic:        +16.111381
Potential:      -18.670133
External:        -0.607318
XC:             -13.231328
Entropy (-ST):   -0.000000
Local:           +0.612756
-------------------------
Free Energy:    -15.784642
Zero Kelvin:    -15.784642

Fermi Level: -3.30969
 Band  Eigenvalues  Occupancy
    0    -23.84557    2.00000
    1    -11.88819    2.00000
    2     -8.38003    2.00000
    3     -6.40879    2.00000
    4     -0.21058    0.00000
    5      0.72562    0.00000


Dipole Moment: [  3.20163383e-01   3.18957629e-01   7.33655861e-12]

Forces in eV/Ang:
  0 O     0.95294    0.08200   -0.00000
  1 H     0.01069   -0.06948   -0.00000
  2 H    -0.03055   -0.00706   -0.00000

Positions:
  0 O     4.4126    4.1622    4.7586
  1 H     4.1146    5.0871    4.7586
  2 H     5.4104    4.2245    4.7586

       .----------------------------.  
      /|                            |  
     / |                            |  
    /  |                            |  
   /   |                            |  
  /    |                            |  
 *     |                            |  
 |     |                            |  
 |     |                            |  
 |     |       O H                  |  
 |     |                            |  
 |     |                            |  
 |     .----------------------------.  
 |    /                            /   
 |   /                            /    
 |  /                            /     
 | /                            /      
 |/                            /       
 *----------------------------*        

Unit Cell:
           Periodic     X           Y           Z      Points  Spacing
  --------------------------------------------------------------------
  1. axis:    no    11.614657    0.000000    0.000000    60     0.1936
  2. axis:    no     0.000000    9.136244    0.000000    44     0.2076
  3. axis:    no     0.000000    0.000000    9.517122    48     0.1983

O-setup:
  name   : Oxygen
  id     : 9b9d51c344dea68c822856295a461509
  Z      : 8
  valence: 6
  core   : 2
  charge : 0.0
  file   : /Users/asod/Dropbox/HI/gpaw-setups/gpaw-setups-0.9.20000/O.LDA.gz
  cutoffs: 0.67(comp), 1.17(filt), 0.83(core), lmax=2
  valence states:
            energy   radius
    2s(2.00) -23.752   0.688
    2p(4.00)  -9.195   0.598
    *s       3.459   0.688
    *p      18.016   0.598
    *d       0.000   0.619

Using partial waves for O as LCAO basis

H-setup:
  name   : Hydrogen
  id     : 4766778ce56282eaa64abeb28b7c1de3
  Z      : 1
  valence: 1
  core   : 0
  charge : 0.0
  file   : /Users/asod/Dropbox/HI/gpaw-setups/gpaw-setups-0.9.20000/H.LDA.gz
  cutoffs: 0.48(comp), 0.85(filt), 0.53(core), lmax=2
  valence states:
            energy   radius
    1s(1.00)  -6.353   0.476
    *s      20.858   0.476
    *p       0.000   0.476

Using partial waves for H as LCAO basis

Using the LDA Exchange-Correlation Functional.
Spin-Paired Calculation
Total Charge: 0.000000
Fermi Temperature: 0.000000
Wave functions: Uniform real-space grid
Kinetic energy operator: 6*3+1=19 point O(h^6) finite-difference Laplacian
Eigensolver: Davidson(niter=1, smin=None, normalize=True)
XC and Coulomb potentials evaluated on a 120*88*96 grid
Interpolation: tri-quintic (5. degree polynomial)
Poisson solver: Jacobi solver with 4 multi-grid levels
    Coarsest grid: 15 x 11 x 12 points
    Stencil: 6*3+1=19 point O(h^6) finite-difference Laplacian
    Tolerance: 2.000000e-10
    Max iterations: 1000
Reference Energy: -2052.165985

Total number of cores used: 1
MatrixOperator buffer_size: default value or 
                            see value of nblock in input file
Diagonalizer layout: Serial LAPACK
Orthonormalizer layout: Serial LAPACK

External potential:
    Point-charge potential (points: 3, cutoffs: 0.020, inf, inf Ang)

Symmetries present (total): 1

  ( 1  0  0)
  ( 0  1  0)
  ( 0  0  1)

1 k-point (Gamma)
1 k-point in the Irreducible Part of the Brillouin Zone

          k-points in crystal coordinates                weights
   0:     0.00000000    0.00000000    0.00000000          1/1

Mixer Type: Mixer
Linear Mixing Parameter: 0.25
Mixing with 3 Old Densities
No Damping of Long Wave Oscillations

Convergence Criteria:
    Total Energy Change: 0.0005 eV / electron
    Integral of Absolute Density Change: 0.0001 electrons
    Integral of Absolute Eigenstate Change: 4e-08 eV^2
Number of Atoms: 3
Number of Atomic Orbitals: 6
Number of Bands in Calculation: 6
Bands to Converge: Occupied States Only
Number of Valence Electrons: 8
                     log10-error:    Total        Iterations:
           Time      WFS    Density  Energy       Fermi  Poisson
iter:   1  17:11:16  +0.20          -15.805490    0      13     
iter:   2  17:11:17  -0.28  -1.72   -15.800635    0      7      
iter:   3  17:11:18  -1.28  -1.89   -15.788731    0      7      
iter:   4  17:11:19  -1.86  -2.55   -15.788897    0      6      
iter:   5  17:11:20  -2.34  -2.80   -15.788893    0      5      
iter:   6  17:11:21  -2.92  -3.07   -15.788922    0      5      
iter:   7  17:11:21  -3.04  -3.40   -15.788892    0      4      
iter:   8  17:11:22  -3.50  -3.77   -15.788877    0      3      
iter:   9  17:11:23  -3.67  -3.91   -15.788888    0      3      
iter:  10  17:11:23  -4.06  -4.17   -15.788812    0      1      
iter:  11  17:11:24  -4.20  -4.27   -15.788972    0      1      
iter:  12  17:11:24  -4.59  -4.32   -15.789130    0      1      
iter:  13  17:11:24  -4.75  -4.40   -15.788989    0      2      
iter:  14  17:11:25  -5.06  -4.61   -15.788750    0      1      
iter:  15  17:11:25  -5.28  -4.74   -15.788819    0      1      
iter:  16  17:11:26  -5.52  -5.22   -15.788999    0      1      
iter:  17  17:11:26  -5.80  -5.39   -15.788929    0      1      
iter:  18  17:11:27  -6.00  -5.43   -15.788892    0      1      
iter:  19  17:11:27  -6.27  -5.49   -15.788907    0      1      
iter:  20  17:11:27  -6.48  -5.63   -15.788930    0      1      
iter:  21  17:11:28  -6.75  -5.95   -15.788911    0      1      
iter:  22  17:11:28  -6.96  -6.02   -15.788897    0      1      
iter:  23  17:11:29  -7.22  -6.18   -15.788911    0      1      
iter:  24  17:11:29  -7.43  -6.27   -15.788916    0      1      
------------------------------------
Converged After 24 Iterations.

Energy Contributions Relative to Reference Atoms:(reference = -2052.165985)
-------------------------
Kinetic:        +16.049687
Potential:      -18.619575
External:        -0.613292
XC:             -13.216907
Entropy (-ST):   -0.000000
Local:           +0.611172
-------------------------
Free Energy:    -15.788916
Zero Kelvin:    -15.788916

Fermi Level: -3.30774
 Band  Eigenvalues  Occupancy
    0    -23.83637    2.00000
    1    -11.88764    2.00000
    2     -8.37286    2.00000
    3     -6.40718    2.00000
    4     -0.20830    0.00000
    5      0.72307    0.00000


Dipole Moment: [  3.15824385e-01   3.24013345e-01   2.41722827e-12]

Forces in eV/Ang:
  0 O     0.97898    0.12175   -0.00000
  1 H     0.02726   -0.07823   -0.00000
  2 H    -0.06869   -0.00127    0.00000

Positions:
  0 O     4.4149    4.1592    4.7586
  1 H     4.1135    5.0817    4.7586
  2 H     5.4114    4.2252    4.7586

       .----------------------------.  
      /|                            |  
     / |                            |  
    /  |                            |  
   /   |                            |  
  /    |                            |  
 *     |                            |  
 |     |                            |  
 |     |                            |  
 |     |       O H                  |  
 |     |                            |  
 |     |                            |  
 |     .----------------------------.  
 |    /                            /   
 |   /                            /    
 |  /                            /     
 | /                            /      
 |/                            /       
 *----------------------------*        

Unit Cell:
           Periodic     X           Y           Z      Points  Spacing
  --------------------------------------------------------------------
  1. axis:    no    11.614657    0.000000    0.000000    60     0.1936
  2. axis:    no     0.000000    9.136244    0.000000    44     0.2076
  3. axis:    no     0.000000    0.000000    9.517122    48     0.1983

O-setup:
  name   : Oxygen
  id     : 9b9d51c344dea68c822856295a461509
  Z      : 8
  valence: 6
  core   : 2
  charge : 0.0
  file   : /Users/asod/Dropbox/HI/gpaw-setups/gpaw-setups-0.9.20000/O.LDA.gz
  cutoffs: 0.67(comp), 1.17(filt), 0.83(core), lmax=2
  valence states:
            energy   radius
    2s(2.00) -23.752   0.688
    2p(4.00)  -9.195   0.598
    *s       3.459   0.688
    *p      18.016   0.598
    *d       0.000   0.619

Using partial waves for O as LCAO basis

H-setup:
  name   : Hydrogen
  id     : 4766778ce56282eaa64abeb28b7c1de3
  Z      : 1
  valence: 1
  core   : 0
  charge : 0.0
  file   : /Users/asod/Dropbox/HI/gpaw-setups/gpaw-setups-0.9.20000/H.LDA.gz
  cutoffs: 0.48(comp), 0.85(filt), 0.53(core), lmax=2
  valence states:
            energy   radius
    1s(1.00)  -6.353   0.476
    *s      20.858   0.476
    *p       0.000   0.476

Using partial waves for H as LCAO basis

Using the LDA Exchange-Correlation Functional.
Spin-Paired Calculation
Total Charge: 0.000000
Fermi Temperature: 0.000000
Wave functions: Uniform real-space grid
Kinetic energy operator: 6*3+1=19 point O(h^6) finite-difference Laplacian
Eigensolver: Davidson(niter=1, smin=None, normalize=True)
XC and Coulomb potentials evaluated on a 120*88*96 grid
Interpolation: tri-quintic (5. degree polynomial)
Poisson solver: Jacobi solver with 4 multi-grid levels
    Coarsest grid: 15 x 11 x 12 points
    Stencil: 6*3+1=19 point O(h^6) finite-difference Laplacian
    Tolerance: 2.000000e-10
    Max iterations: 1000
Reference Energy: -2052.165985

Total number of cores used: 1
MatrixOperator buffer_size: default value or 
                            see value of nblock in input file
Diagonalizer layout: Serial LAPACK
Orthonormalizer layout: Serial LAPACK

External potential:
    Point-charge potential (points: 3, cutoffs: 0.020, inf, inf Ang)

Symmetries present (total): 1

  ( 1  0  0)
  ( 0  1  0)
  ( 0  0  1)

1 k-point (Gamma)
1 k-point in the Irreducible Part of the Brillouin Zone

          k-points in crystal coordinates                weights
   0:     0.00000000    0.00000000    0.00000000          1/1

Mixer Type: Mixer
Linear Mixing Parameter: 0.25
Mixing with 3 Old Densities
No Damping of Long Wave Oscillations

Convergence Criteria:
    Total Energy Change: 0.0005 eV / electron
    Integral of Absolute Density Change: 0.0001 electrons
    Integral of Absolute Eigenstate Change: 4e-08 eV^2
Number of Atoms: 3
Number of Atomic Orbitals: 6
Number of Bands in Calculation: 6
Bands to Converge: Occupied States Only
Number of Valence Electrons: 8
                     log10-error:    Total        Iterations:
           Time      WFS    Density  Energy       Fermi  Poisson
iter:   1  17:11:31  -0.52          -15.794618    0      12     
iter:   2  17:11:32  -1.01  -2.05   -15.792964    0      6      
iter:   3  17:11:32  -1.99  -2.23   -15.790430    0      6      
iter:   4  17:11:33  -2.57  -2.92   -15.790502    0      4      
iter:   5  17:11:34  -3.07  -3.15   -15.790516    0      4      
iter:   6  17:11:34  -3.40  -3.51   -15.790479    0      3      
iter:   7  17:11:35  -3.73  -3.65   -15.790380    0      3      
iter:   8  17:11:36  -4.26  -3.88   -15.790446    0      3      
iter:   9  17:11:36  -4.44  -4.11   -15.790495    0      3      
iter:  10  17:11:37  -4.62  -4.40   -15.790397    0      2      
iter:  11  17:11:37  -5.12  -4.60   -15.790392    0      2      
iter:  12  17:11:38  -5.18  -4.76   -15.790522    0      2      
iter:  13  17:11:38  -5.54  -4.73   -15.790327    0      1      
iter:  14  17:11:39  -5.82  -5.02   -15.790329    0      1      
iter:  15  17:11:39  -6.03  -5.31   -15.790460    0      1      
iter:  16  17:11:39  -6.34  -5.34   -15.790476    0      1      
iter:  17  17:11:40  -6.57  -5.38   -15.790450    0      1      
iter:  18  17:11:40  -6.81  -5.37   -15.790492    0      1      
iter:  19  17:11:41  -7.03  -5.59   -15.790474    0      1      
iter:  20  17:11:41  -7.29  -6.00   -15.790451    0      1      
iter:  21  17:11:41  -7.58  -6.10   -15.790449    0      1      
------------------------------------
Converged After 21 Iterations.

Energy Contributions Relative to Reference Atoms:(reference = -2052.165985)
-------------------------
Kinetic:        +16.154723
Potential:      -18.697642
External:        -0.613367
XC:             -13.244666
Entropy (-ST):   -0.000000
Local:           +0.610503
-------------------------
Free Energy:    -15.790449
Zero Kelvin:    -15.790449

Fermi Level: -3.30770
 Band  Eigenvalues  Occupancy
    0    -23.84896    2.00000
    1    -11.89954    2.00000
    2     -8.37511    2.00000
    3     -6.41065    2.00000
    4     -0.20475    0.00000
    5      0.72442    0.00000


Dipole Moment: [  3.14259534e-01   3.25518304e-01   1.03183438e-12]

Forces in eV/Ang:
  0 O     0.95122    0.07655   -0.00000
  1 H     0.00880   -0.02757   -0.00000
  2 H    -0.02608    0.00218    0.00000
